# Position data file
 
128 atoms
5 atom types
 
    0.000000000    11.897069931 xlo xhi
    0.000000000    15.009448051 ylo yhi
    0.000000000    13.739188351 zlo zhi
    0.000000000    -2.816105321     0.000000000 xy xz yz
 
Masses
 
1    26.982000000
2    12.011000000
3     1.008000000
4    14.007000000
5    15.999000000
 
Atoms
 
1 1 0     4.540482305     7.504724026     6.869594176
2 1 0     5.948534966     0.000000000     0.000000000
3 1 0     7.533613852     6.433785018     5.943476541
4 1 0     1.547350400     8.575663034     7.795711810
5 1 0     2.955403103    13.938509044     0.926117428
6 1 0     6.125561192     1.070939113    12.813070717
7 1 0    -1.408052661     7.504724026     6.869594176
8 1 0     0.000000000     0.000000000     0.000000000
9 2 0     5.067393726     5.243865665     5.044645306
10 2 0     4.013571240     9.765581936     8.694543045
11 2 0     5.421623901    12.748590141     1.824948869
12 2 0     3.659341066     2.260858136    11.914239482
13 2 0    10.036327947     5.978668309     4.497042476
14 2 0    -0.955363778     9.030779743     9.242146287
15 2 0     0.452688967    13.483392335     2.372551699
16 2 0     8.628275370     1.526055612    11.366636240
17 2 0     4.320994103     1.217101088     2.085196561
18 2 0     4.759970506    13.792346618    11.653991790
19 2 0     6.168023167     8.721825459     4.784397614
20 2 0     2.912941443     6.287623043     8.954790737
21 2 0     5.149834553     3.173657809     3.523414811
22 2 0     3.931129712    11.835790018    10.215773540
23 2 0     5.339182372    10.678382060     3.346179364
24 2 0     3.741781892     4.331066442    10.393008987
25 2 0    10.664341420     2.514923123     0.891494742
26 2 0    -1.583377031    12.494525154    12.847693815
27 2 0    -0.175324370    10.019646923     5.978099640
28 2 0     9.256288802     4.989801128     7.761088711
29 2 0     9.902906368     4.391569557     2.504337953
30 2 0    -0.821941936    10.617878945    11.234849986
31 2 0     0.586110641    11.896293133     4.365256223
32 2 0     8.494853623     3.113154694     9.373932540
33 2 0     4.490537162     4.176769106     4.215801373
34 2 0     4.590427448    10.832678495     9.523386978
35 2 0     5.998480066    11.681493582     2.653793008
36 2 0     3.082484501     3.327954920    11.085395549
37 2 0    10.825017700     3.537576781     1.926261699
38 2 0    -1.744052954    11.471871270    11.812926858
39 2 0    -0.336000293    11.042300807     4.943332683
40 2 0     9.416965081     3.967147245     8.795855668
41 2 0    10.624785773     5.068315446     3.500937527
42 2 0    -1.543818621     9.941133056    10.238237319
43 2 0    -0.135768729    12.573039021     3.368656649
44 2 0     9.216730344     2.436408580    10.370545208
45 2 0     4.129989180     2.416506127     2.929016265
46 2 0     4.950975030    12.592941925    10.810172293
47 2 0     6.359027775     9.921230153     3.940577705
48 2 0     2.721936562     5.088217899     9.798610234
49 3 0     6.278587058     6.329094193     7.987730404
50 3 0     2.802377908     8.680353859     5.751457947
51 3 0     1.394325248    13.833818219    12.621052123
52 3 0     7.686639699     1.175630058     1.118136324
53 3 0     8.280065810     8.188720018     7.373808608
54 3 0     0.800898454     6.820728484     6.365379743
55 3 0    -0.607154207     0.683995542    13.234973919
56 3 0     9.688118460    14.325452059     0.504214487
57 3 0     0.989162298     3.205717870     2.489224997
58 3 0     8.091802175    11.803729957    11.249963148
59 3 0     9.499854751    10.710442121     4.380369385
60 3 0    -0.418890405     4.299005931     9.358819378
61 3 0     2.375752619     4.573228772     4.289676920
62 3 0     6.705211991    10.436219280     9.449511431
63 3 0     8.113264652    12.077952798     2.579917255
64 3 0     0.967699958     2.931495254    11.159271096
65 3 0     6.219675116     3.016118567     3.484601714
66 3 0     2.861289412    11.993329484    10.254587035
67 3 0     4.269342155    10.520842593     3.384992461
68 3 0     4.811622537     4.488605459    10.354195491
69 3 0     8.856735402     4.502939271     2.251688197
70 3 0     0.224229304    10.506508780    11.487500553
71 3 0     1.632282047    12.007663297     4.617905979
72 3 0     7.448682823     3.001784529     9.121281974
73 4 0     0.108528950     3.734530864     2.586855545
74 4 0     8.972435566    11.274916963    11.152332394
75 4 0    10.380488142    11.239255115     4.282738630
76 4 0    -1.299523796     3.770193387     9.456450133
77 4 0     3.158339526     3.988986127     3.987689327
78 4 0     5.922625522    11.020461925     9.751498626
79 4 0     7.330678140    11.493710152     2.881904656
80 4 0     1.750286784     3.515738124    10.857283901
81 4 0     2.908532514     2.923525192     3.217127072
82 4 0     6.172432180    12.085923085    10.522060867
83 4 0     7.580484756    10.428248993     3.652467104
84 4 0     1.500479769     4.581198609    10.086721659
85 4 0     0.021099742     4.662760054     3.540437693
86 4 0     9.059864784    10.346687997    10.198750658
87 4 0    10.467917445    12.167484080     3.329156482
88 4 0    -1.386952919     2.841963971    10.410031869
89 5 0     6.328091384     5.187400467     5.174425611
90 5 0     2.752873310     9.822047585     8.564762328
91 5 0     4.160925886    12.692124492     1.695168565
92 5 0     4.920038639     2.317323784    12.044020199
93 5 0     6.258482979     6.935415481     7.232982312
94 5 0     2.822481546     8.074032570     6.506206452
95 5 0     1.414428970    14.440139507    13.375800215
96 5 0     7.666535710     0.569308380     0.363387793
97 5 0     8.788849186     5.827133162     4.677671531
98 5 0     0.292115151     9.182315340     9.061516408
99 5 0     1.700167728    13.331856737     2.191922645
100 5 0     7.380796441     1.677590969    11.547266118
101 5 0     8.683639507     7.702533602     6.640135812
102 5 0     0.397325008     7.306914450     7.099052127
103 5 0     1.805377621     0.197809516     0.229458185
104 5 0     7.275586762    14.811638476    13.509730400
105 5 0     3.495353085     0.272256363     2.185011778
106 5 0     5.585611252    14.737191598    11.554176161
107 5 0     6.993663828     7.776980479     4.684582397
108 5 0     2.087300340     7.232467572     9.054606366
109 5 0     9.524799156     2.428633776     0.331402962
110 5 0    -0.443834586    12.580814276    13.407785581
111 5 0     0.964218075     9.933357802     6.538191406
112 5 0     8.116746535     5.076105469     7.200996945
113 5 0     4.272475230     6.104973024     5.532111599
114 5 0     4.808489821     8.904475477     8.207076340
115 5 0     6.216542420    13.609696600     1.337482466
116 5 0     2.864422484     1.399751121    12.401706187
117 5 0     5.346136544     1.239074950     1.326010327
118 5 0     3.734827982    13.770372651    12.413178437
119 5 0     5.142880727     8.743799426     5.543583849
120 5 0     3.938083967     6.265649076     8.195604090
121 5 0    11.684300699     1.796585858     0.666694142
122 5 0    -2.603336425    13.212862523    13.072494566
123 5 0    -1.195283680     9.301309554     6.202899978
124 5 0    10.276248112     5.708138047     7.536287961
125 5 0    10.784363974     6.793125929     5.114934802
126 5 0    -1.703399472     8.216322123     8.624253549
127 5 0    -0.295346769    14.297849954     1.754659168
128 5 0     9.376311313     0.711597932    11.984528977
