ITEM: TIMESTEP
0
ITEM: NUMBER OF ATOMS
128
ITEM: BOX BOUNDS xy xz yz pp pp pp
-2.8161053210000002e+00 1.1897069931000001e+01 0.0000000000000000e+00
0.0000000000000000e+00 1.5009448051000000e+01 -2.8161053210000002e+00
0.0000000000000000e+00 1.3739188350999999e+01 0.0000000000000000e+00
ITEM: ATOMS id type x y z vx vy vz
8 1 0 0 0 -0.00076293 0.00481802 -0.00127779
57 3 0.989162 3.20572 2.48922 -0.022301 -0.0145008 -0.0221877
73 4 0.108529 3.73453 2.58686 -0.000226188 0.00204572 -0.00196766
81 4 2.90853 2.92353 3.21713 0.00335063 0.002482 -0.00332547
103 5 1.80538 0.19781 0.229458 -0.00522944 -0.00520542 0.00456507
105 5 3.49535 0.272256 2.18501 0.00224783 0.00353585 0.00229199
55 3 -0.607154 0.683996 13.235 0.0136283 0.00322901 0.00691391
64 3 0.9677 2.9315 11.1593 0.00763863 -0.00632556 -0.0221841
88 4 -1.38695 2.84196 10.41 -0.00251412 -0.0026097 -0.00709568
61 3 2.37575 4.57323 4.28968 -0.0236209 -0.0234682 -0.0204714
85 4 0.0210997 4.66276 3.54044 -0.00299963 0.00233174 -0.00642769
54 3 0.800898 6.82073 6.36538 0.00372627 0.00411068 -0.0128878
102 5 0.397325 7.30691 7.09905 -0.00306109 -0.00112628 -0.0048647
108 5 2.0873 7.23247 9.05461 0.00412047 0.00356443 0.00522673
60 3 -0.41889 4.29901 9.35882 0.00228346 -0.00441714 -0.0148271
76 4 -1.29952 3.77019 9.45645 0.00516185 -0.000121606 -0.00637643
84 4 1.50048 4.5812 10.0867 -0.00401145 -0.00241465 0.0050084
4 1 1.54735 8.57566 7.79571 -0.00549335 0.00430112 -0.00102205
27 2 -0.175324 10.0196 5.9781 -0.0076149 -0.00156812 -0.0028116
39 2 -0.336 11.0423 4.94333 -0.00397843 -0.00682853 -0.00424606
98 5 0.292115 9.18232 9.06152 -0.00591469 0.00569839 0.00427725
111 5 0.964218 9.93336 6.53819 3.02987e-05 0.00499681 -1.40375e-05
123 5 -1.19528 9.30131 6.2029 0.000314786 -0.00216632 0.00493752
126 5 -1.7034 8.21632 8.62425 0.00358541 0.00122476 0.000296896
14 2 -0.955364 9.03078 9.24215 -0.000400116 0.00224108 -0.00225253
30 2 -0.821942 10.6179 11.2348 0.00630916 -0.00340362 -0.00677212
42 2 -1.54382 9.94113 10.2382 -0.00147237 -0.00640603 -0.00434946
70 3 0.224229 10.5065 11.4875 0.019823 -0.0202148 -0.0192917
5 1 2.9554 13.9385 0.926117 -0.0029861 -0.0033425 0.00105079
15 2 0.452689 13.4834 2.37255 0.00628566 -0.00470982 0.00469341
31 2 0.586111 11.8963 4.36526 0.00116117 -0.004697 -0.00033894
43 2 -0.135769 12.573 3.36866 0.00128424 0.000954765 -0.0029318
99 5 1.70017 13.3319 2.19192 0.000920793 0.00563785 -0.00357726
127 5 -0.295347 14.2978 1.75466 0.00627566 0.00493581 -0.0019901
71 3 1.63228 12.0077 4.61791 -0.000920333 0.0118276 0.00287
26 2 -1.58338 12.4945 12.8477 -0.00564168 0.00270998 0.00583902
38 2 -1.74405 11.4719 11.8129 0.00215588 0.00748592 0.00513474
110 5 -0.443835 12.5808 13.4078 -0.00177004 0.00598992 0.00636575
122 5 -2.60334 13.2129 13.0725 -0.0031056 0.00122988 0.00442982
2 1 5.94853 0 0 0.000174909 -0.00127105 0.0016101
17 2 4.32099 1.2171 2.0852 0.005695 0.00344135 0.000929354
21 2 5.14983 3.17366 3.52341 0.00445431 -0.00201173 0.00476846
45 2 4.12999 2.41651 2.92902 0.00275489 -0.00192115 -7.32546e-05
52 3 7.68664 1.17563 1.11814 -0.00569273 0.0251781 0.0203306
65 3 6.21968 3.01612 3.4846 -0.0238618 0.00555845 0.0246548
96 5 7.66654 0.569308 0.363388 -0.0022155 -0.00472244 0.00466614
117 5 5.34614 1.23907 1.32601 4.07936e-06 0.000890193 -0.00211278
12 2 3.65934 2.26086 11.9142 5.71566e-05 0.00388393 0.00745364
36 2 3.08248 3.32795 11.0854 0.00666237 -0.00298545 -0.001129
80 4 1.75029 3.51574 10.8573 -7.45045e-05 -0.000191384 0.0018753
92 5 4.92004 2.31732 12.044 0.00230331 -0.00528987 0.00411178
116 5 2.86442 1.39975 12.4017 -0.00282537 0.0043272 0.00103843
33 2 4.49054 4.17677 4.2158 -0.00682222 0.000469131 0.00687422
77 4 3.15834 3.98899 3.98769 0.0055612 0.00476048 0.00282629
9 2 5.06739 5.24387 5.04465 -0.00678783 -0.00406659 -0.00168147
20 2 2.91294 6.28762 8.95479 -0.00278115 -0.00681247 -0.00194535
49 3 6.27859 6.32909 7.98773 0.0106873 -0.0203787 -0.00206501
89 5 6.32809 5.1874 5.17443 0.00395962 0.00135548 0.000706668
93 5 6.25848 6.93542 7.23298 0.00290893 -0.00405888 -0.00250465
113 5 4.27248 6.10497 5.53211 -0.00400459 -0.00574842 0.00521733
120 5 3.93808 6.26565 8.1956 0.000488942 0.00535787 -0.00251902
24 2 3.74178 4.33107 10.393 -0.00311827 -0.00440251 0.00515782
48 2 2.72194 5.08822 9.79861 0.00742398 -0.00345362 0.00302165
68 3 4.81162 4.48861 10.3542 -0.0183107 -0.0189163 0.0108727
23 2 5.33918 10.6784 3.34618 0.00365781 -0.00520849 9.27481e-05
47 2 6.35903 9.92123 3.94058 0.00550674 0.00411343 0.00716647
67 3 4.26934 10.5208 3.38499 0.0163228 0.0152529 0.0126223
1 1 4.54048 7.50472 6.86959 -0.00447859 -0.00119021 -0.00536221
10 2 4.01357 9.76558 8.69454 -0.000610113 -0.000206646 0.00149942
19 2 6.16802 8.72183 4.7844 -0.0012284 0.000193647 0.00595735
50 3 2.80238 8.68035 5.75146 -0.00279661 0.00114298 0.00377074
90 5 2.75287 9.82205 8.56476 0.00382085 0.00202524 0.00230822
94 5 2.82248 8.07403 6.50621 0.0011261 0.00458714 0.00429818
114 5 4.80849 8.90448 8.20708 0.00272712 -0.0038617 -0.003546
119 5 5.14288 8.7438 5.54358 -0.00415044 -0.00139882 -0.00155011
34 2 4.59043 10.8327 9.52339 -0.00762235 -0.000817984 -0.00727474
78 4 5.92263 11.0205 9.7515 0.00647707 0.000738933 -0.00708168
11 2 5.42162 12.7486 1.82495 0.00502492 -0.000566841 -0.00606675
35 2 5.99848 11.6815 2.65379 -0.00680344 0.00123224 1.27623e-05
79 4 7.33068 11.4937 2.8819 0.00622113 0.000493681 -0.00276441
91 5 4.16093 12.6921 1.69517 0.00435589 0.00401779 -0.00134788
115 5 6.21654 13.6097 1.33748 0.0026469 -0.00144986 0.000114529
18 2 4.75997 13.7923 11.654 -0.00289629 -0.00532981 -0.00776437
22 2 3.93113 11.8358 10.2158 -0.00354762 0.00660363 -0.00703897
46 2 4.95098 12.5929 10.8102 -0.00619384 -0.0034205 -0.00711099
51 3 1.39433 13.8338 12.6211 -0.0260458 -0.0137141 -0.00773091
66 3 2.86129 11.9933 10.2546 0.0248255 -0.02486 0.0134361
95 5 1.41443 14.4401 13.3758 -0.00205423 0.00443287 0.00353028
118 5 3.73483 13.7704 12.4132 -0.00201721 -0.000963348 0.00505133
25 2 10.6643 2.51492 0.891495 0.00605316 -0.00747978 -0.00674536
37 2 10.825 3.53758 1.92626 -0.00501772 0.00317512 -0.00195298
109 5 9.5248 2.42863 0.331403 -0.00296788 -0.00339533 0.00382821
121 5 11.6843 1.79659 0.666694 0.00525197 0.00306077 -0.00149919
72 3 7.44868 3.00178 9.12128 -0.000672071 -0.000704789 -0.0169891
6 1 6.12556 1.07094 12.8131 -0.000186378 -0.00139516 -0.00419066
16 2 8.62828 1.52606 11.3666 -0.00528903 -0.00640782 -0.00300671
32 2 8.49485 3.11315 9.37393 0.000122385 -0.00199396 0.00436449
44 2 9.21673 2.43641 10.3705 0.00504934 0.000416233 -0.000437151
100 5 7.3808 1.67759 11.5473 -0.00428831 0.000578985 0.00615304
128 5 9.37631 0.711598 11.9845 -0.000142565 0.00554956 -0.000512973
13 2 10.0363 5.97867 4.49704 -9.17074e-06 0.0070413 -0.00421934
29 2 9.90291 4.39157 2.50434 0.00652553 -0.00392315 0.000147645
41 2 10.6248 5.06832 3.50094 -0.00232679 -0.0067931 -0.00709923
69 3 8.85674 4.50294 2.25169 -0.019847 -0.0230806 0.0252722
3 1 7.53361 6.43379 5.94348 -0.00202444 0.00215947 -0.00482938
28 2 9.25629 4.9898 7.76109 -0.00591112 -0.00692784 -0.00432666
40 2 9.41697 3.96715 8.79586 0.00716577 0.00242312 0.00271968
97 5 8.78885 5.82713 4.67767 0.00223966 0.00260423 0.00627124
112 5 8.11675 5.07611 7.201 0.00552139 0.00177096 -0.00121676
124 5 10.2762 5.70814 7.53629 -0.00701367 -0.00640363 0.00276854
125 5 10.7844 6.79313 5.11493 0.00550372 0.00502672 -0.00198176
59 3 9.49985 10.7104 4.38037 -0.0202176 -0.00057596 -0.0258207
75 4 10.3805 11.2393 4.28274 -0.00346382 0.00119761 0.00351849
83 4 7.58048 10.4282 3.65247 -0.00630019 -0.00624035 0.00620032
7 1 10.489 7.50472 6.86959 0.00361554 0.00466205 0.00366409
53 3 8.28007 8.18872 7.37381 0.0150932 0.00203863 0.00145383
101 5 8.68364 7.70253 6.64014 -0.000618104 -0.00593645 -0.00345137
107 5 6.99366 7.77698 4.68458 -0.00483683 0.00394401 6.62394e-05
62 3 6.70521 10.4362 9.44951 0.0106591 -0.00623266 0.0173585
86 4 9.05986 10.3467 10.1988 0.00430654 0.000913887 0.00271391
56 3 9.68812 14.3255 0.504214 0.0258157 -0.0150251 0.024403
63 3 8.11326 12.078 2.57992 0.0118723 0.00232408 0.0161455
87 4 10.4679 12.1675 3.32916 -0.00139302 0.00177744 -0.00563258
58 3 8.0918 11.8037 11.25 0.0245925 0.0263371 -0.0118162
74 4 8.97244 11.2749 11.1523 0.00595232 0.00244902 -0.00362953
82 4 6.17243 12.0859 10.5221 0.0037389 -0.00379672 0.00322892
104 5 7.27559 14.8116 13.5097 -0.00476842 -0.00591288 -0.00292262
106 5 5.58561 14.7372 11.5542 0.00439875 0.00123405 0.00621367
ITEM: TIMESTEP
5
ITEM: NUMBER OF ATOMS
128
ITEM: BOX BOUNDS xy xz yz pp pp pp
-2.8161053210000002e+00 1.1897069931000001e+01 0.0000000000000000e+00
0.0000000000000000e+00 1.5009448051000000e+01 -2.8161053210000002e+00
0.0000000000000000e+00 1.3739188350999999e+01 0.0000000000000000e+00
ITEM: ATOMS id type x y z vx vy vz
105 5 3.49646 0.273999 2.18618 0.00219047 0.00343404 0.00237203
57 3 0.978273 3.19803 2.4779 -0.0211451 -0.0162677 -0.0230603
73 4 0.108388 3.73551 2.5858 -0.000347644 0.00186375 -0.00224622
81 4 2.91025 2.92471 3.21543 0.0035344 0.00224381 -0.00347651
103 5 1.80276 0.195203 0.231743 -0.00523103 -0.00521183 0.00456345
55 3 -0.600307 0.685679 13.2383 0.013658 0.00340064 0.00668503
64 3 0.971379 2.92782 11.1484 0.00699799 -0.00846699 -0.02125
88 4 -1.38827 2.84059 10.4065 -0.00275723 -0.00286827 -0.00693773
61 3 2.36386 4.56199 4.27966 -0.0239274 -0.0214244 -0.0195419
85 4 0.0195349 4.66399 3.53726 -0.00325209 0.00259052 -0.00627086
54 3 0.802813 6.8227 6.35881 0.00387209 0.00382033 -0.0132852
102 5 0.395792 7.30636 7.09663 -0.0030659 -0.00110513 -0.00484633
108 5 2.08935 7.23427 9.05724 0.00406209 0.00365494 0.00530619
60 3 -0.417515 4.29724 9.35116 0.00327051 -0.00263435 -0.0157925
76 4 -1.29697 3.77018 9.4532 0.00505515 4.83681e-05 -0.00663118
84 4 1.49852 4.58005 10.0892 -0.00380988 -0.00216265 0.00484729
4 1 1.54461 8.57781 7.7952 -0.00546913 0.00427522 -0.00103772
27 2 -0.179146 10.0189 5.97666 -0.00765394 -0.00145835 -0.00293203
39 2 -0.338049 11.0389 4.94122 -0.00421282 -0.0069673 -0.0042087
98 5 0.289193 9.18517 9.06364 -0.00576271 0.00570507 0.00423322
111 5 0.96424 9.93586 6.53819 4.9282e-05 0.0050046 1.01561e-05
123 5 -1.19514 9.30022 6.20538 0.00025426 -0.00219583 0.00496566
126 5 -1.70162 8.21692 8.62441 0.0035259 0.00117422 0.00032343
7 1 -1.40625 7.50705 6.87143 0.00360986 0.0046545 0.00366099
14 2 -0.95557 9.03193 9.24102 -0.000433192 0.00237491 -0.00223117
30 2 -0.818787 10.6162 11.2315 0.00631246 -0.00339701 -0.00672396
42 2 -1.54459 9.93788 10.236 -0.00159561 -0.00658437 -0.00452848
70 3 0.234201 10.4964 11.4779 0.0198856 -0.0203197 -0.0192373
5 1 2.95392 13.9368 0.926639 -0.00295985 -0.00331388 0.00103459
15 2 0.455822 13.481 2.3749 0.00623176 -0.00479484 0.00466541
31 2 0.586689 11.8939 4.36509 0.00114743 -0.00467959 -0.000324588
43 2 -0.13516 12.5736 3.36714 0.0011486 0.00114117 -0.00312649
99 5 1.70066 13.3347 2.19013 0.00105636 0.00561884 -0.0036017
127 5 -0.29222 14.3003 1.75368 0.0062355 0.00495446 -0.00193452
71 3 1.63195 12.0136 4.61937 -0.000402884 0.012006 0.00299556
26 2 -1.58621 12.4959 12.8506 -0.00569852 0.00260255 0.00570739
38 2 -1.74303 11.4756 11.8155 0.00194441 0.00758557 0.00513417
110 5 -0.444711 12.5838 13.411 -0.00174004 0.00597683 0.0063922
122 5 -2.6049 13.2135 13.0747 -0.00316101 0.00126108 0.00445873
117 5 5.34615 1.23952 1.32495 5.04733e-05 0.000901198 -0.00212922
17 2 4.32387 1.21885 2.08566 0.00578429 0.00355963 0.000909048
21 2 5.15205 3.17264 3.5258 0.00437175 -0.00203243 0.00477424
45 2 4.13133 2.4155 2.92895 0.00259643 -0.00209566 -0.000199692
52 3 7.68377 1.18814 1.1283 -0.00579994 0.0244741 0.0198451
65 3 6.20809 3.01877 3.49683 -0.0220365 0.00495581 0.0242205
96 5 7.66543 0.566955 0.365712 -0.00219678 -0.00466671 0.00466047
12 2 3.65932 2.26282 11.9179 -0.000152941 0.00396857 0.00733215
36 2 3.08575 3.32641 11.0849 0.00636481 -0.00321202 -0.00100272
80 4 1.7503 3.5156 10.8583 0.000144523 -0.000348071 0.00205289
92 5 4.92121 2.31467 12.0461 0.0023953 -0.0053158 0.00413875
116 5 2.86301 1.40191 12.4022 -0.00281581 0.00431439 0.00101733
33 2 4.48707 4.17705 4.21926 -0.00702793 0.000658946 0.00697016
77 4 3.16116 3.9914 3.98914 0.0057048 0.00490165 0.00298429
9 2 5.06395 5.24181 5.04378 -0.00695564 -0.00413861 -0.00177145
20 2 2.91158 6.28419 8.95381 -0.0026582 -0.00692198 -0.00197232
49 3 6.2839 6.31888 7.98683 0.0105439 -0.0203216 -0.00170493
89 5 6.33009 5.18809 5.17478 0.00401987 0.00138275 0.000724655
93 5 6.25994 6.93339 7.23171 0.00291898 -0.00406753 -0.00256097
113 5 4.27048 6.1021 5.53471 -0.0039949 -0.00573707 0.00518935
120 5 3.93834 6.26832 8.19434 0.000516613 0.00533984 -0.00252357
1 1 4.53824 7.50413 6.86691 -0.00447315 -0.00119191 -0.00535654
24 2 3.74023 4.32888 10.3956 -0.00308971 -0.0043554 0.00514428
48 2 2.7256 5.08654 9.80008 0.00720155 -0.00324742 0.00287234
68 3 4.80273 4.47927 10.3595 -0.0169988 -0.0183649 0.010452
23 2 5.34101 10.6758 3.34623 0.00364811 -0.00522549 9.24261e-05
47 2 6.36182 9.92323 3.9442 0.00563856 0.0038934 0.0073162
67 3 4.27725 10.5283 3.3914 0.0151095 0.0147137 0.0130198
119 5 5.1408 8.7431 5.54281 -0.00419381 -0.00139006 -0.0015324
10 2 4.01333 9.7655 8.69532 -0.000359974 -0.000140206 0.00159653
19 2 6.16738 8.72196 4.78738 -0.00134477 0.000353306 0.00596623
50 3 2.801 8.68102 5.75312 -0.00272889 0.00154783 0.00286026
90 5 2.75475 9.82305 8.56591 0.00369755 0.00198842 0.0022759
94 5 2.82304 8.07632 6.50838 0.00110638 0.00457214 0.00438435
114 5 4.80985 8.90254 8.20531 0.00270403 -0.00385676 -0.00351048
34 2 4.58669 10.8322 9.51972 -0.0073033 -0.00100403 -0.0073656
78 4 5.92581 11.0208 9.74791 0.00624788 0.000579811 -0.00725825
11 2 5.42419 12.7483 1.82195 0.00522651 -0.000670429 -0.00593623
35 2 5.99515 11.6822 2.65377 -0.00648754 0.00143013 -9.27124e-05
79 4 7.33373 11.494 2.88048 0.00599189 0.000642437 -0.00293583
91 5 4.16308 12.6941 1.69449 0.00424837 0.00404868 -0.0013777
115 5 6.21787 13.609 1.33755 0.00264732 -0.00143025 0.000133781
2 1 5.94862 15.0088 0.000804619 0.000175054 -0.00127117 0.00160743
18 2 4.75849 13.7897 11.6501 -0.00300538 -0.00542151 -0.00770788
22 2 3.92936 11.8391 10.2123 -0.00348541 0.00659795 -0.00705362
46 2 4.94793 12.5913 10.8067 -0.00598822 -0.00320021 -0.0069571
51 3 1.38134 13.827 12.6171 -0.0258477 -0.0133163 -0.00769706
66 3 2.87334 11.981 10.2614 0.0229192 -0.0242203 0.013861
95 5 1.4134 14.4424 13.3776 -0.00207481 0.00439989 0.00356096
118 5 3.73381 13.7699 12.4157 -0.00203376 -0.000977456 0.00504125
25 2 10.6674 2.51122 0.888161 0.00608778 -0.00732276 -0.00658097
37 2 10.8226 3.53912 1.92527 -0.00473029 0.00297328 -0.00203479
109 5 9.52331 2.42694 0.333309 -0.00299206 -0.00339422 0.00379471
121 5 11.6869 1.79811 0.665936 0.00531267 0.00301971 -0.00153593
72 3 7.44824 3.00137 9.11278 -0.00100463 -0.00096414 -0.0169581
6 1 6.12546 1.07023 12.811 -0.000212196 -0.00142461 -0.00416457
16 2 8.62563 1.52289 11.3651 -0.00527304 -0.00624743 -0.0030258
32 2 8.49492 3.11216 9.3761 0.000126666 -0.00198095 0.004313
44 2 9.21928 2.43656 10.3704 0.00513978 0.000190917 -0.000218024
100 5 7.37862 1.67788 11.5503 -0.00439562 0.00058764 0.00617753
128 5 9.37625 0.714361 11.9843 -8.9915e-05 0.00549788 -0.000542474
8 1 9.08058 0.00240832 13.7385 -0.000764813 0.00481372 -0.00127756
13 2 10.0363 5.98215 4.49493 1.74246e-05 0.00689975 -0.00422964
29 2 9.90615 4.38961 2.5044 0.00640021 -0.00390087 0.00010038
41 2 10.6237 5.06498 3.49745 -0.00218969 -0.00653119 -0.00683194
69 3 8.84679 4.49144 2.26432 -0.0196811 -0.0229252 0.0252942
3 1 7.5326 6.43487 5.94107 -0.00204733 0.00218294 -0.00481059
28 2 9.25336 4.98631 7.75896 -0.00577945 -0.00702499 -0.00416609
40 2 9.4206 3.96839 8.7972 0.0073596 0.00255595 0.00266926
97 5 8.78994 5.82843 4.68081 0.00212442 0.00259701 0.00629949
112 5 8.11949 5.07699 7.20038 0.00544364 0.00175624 -0.00126318
124 5 10.2728 5.70495 7.53766 -0.00694966 -0.00636198 0.00273231
125 5 10.7871 6.79565 5.11393 0.00554279 0.00505442 -0.00202895
59 3 9.48961 10.7097 4.36772 -0.0205723 -0.00214817 -0.0247599
75 4 10.3788 11.2398 4.28456 -0.00340546 0.00101919 0.00375609
83 4 7.5773 10.4251 3.6556 -0.00643495 -0.00645098 0.00633772
107 5 6.99126 7.77892 4.68459 -0.00476226 0.00382497 -1.59096e-05
53 3 8.28753 8.18984 7.37469 0.014743 0.00243615 0.00203204
101 5 8.68334 7.69956 6.6384 -0.000587224 -0.00595672 -0.00347094
62 3 6.71064 10.4326 9.45798 0.0110152 -0.00818823 0.0165111
86 4 9.06208 10.3471 10.2001 0.00456439 0.000649735 0.00255727
56 3 9.70097 14.3179 0.516486 0.0256687 -0.0150654 0.0244683
63 3 8.1193 12.0796 2.58778 0.0122616 0.00427045 0.0153084
87 4 10.4673 12.1684 3.32631 -0.00110784 0.00202597 -0.00576006
58 3 8.10386 11.8173 11.2443 0.0235881 0.0280948 -0.0108808
74 4 8.97544 11.2762 11.1506 0.00606248 0.00263407 -0.00335339
82 4 6.17425 12.0841 10.5237 0.00353684 -0.00355985 0.00337611
104 5 7.27321 14.8087 13.5083 -0.00474723 -0.00590561 -0.00291151
106 5 5.58782 14.7378 11.5573 0.00443414 0.00130155 0.00612234
ITEM: TIMESTEP
10
ITEM: NUMBER OF ATOMS
128
ITEM: BOX BOUNDS xy xz yz pp pp pp
-2.8161053210000002e+00 1.1897069931000001e+01 0.0000000000000000e+00
0.0000000000000000e+00 1.5009448051000000e+01 -2.8161053210000002e+00
0.0000000000000000e+00 1.3739188350999999e+01 0.0000000000000000e+00
ITEM: ATOMS id type x y z vx vy vz
105 5 3.49755 0.275691 2.18738 0.00214247 0.00333831 0.00244801
57 3 0.968103 3.18945 2.46621 -0.019453 -0.0180371 -0.023677
73 4 0.108175 3.73639 2.5846 -0.00050914 0.00167444 -0.00255718
81 4 2.91207 2.92577 3.21365 0.00373851 0.00201683 -0.00361547
103 5 1.80015 0.192605 0.234012 -0.00518862 -0.00517281 0.00450319
55 3 -0.593587 0.687304 13.2418 0.0131208 0.00300086 0.00729991
64 3 0.974638 2.92297 11.138 0.00598524 -0.0109918 -0.0201493
88 4 -1.3897 2.8391 10.4031 -0.00293726 -0.00312185 -0.00676048
61 3 2.35187 4.55183 4.27016 -0.0239262 -0.0191938 -0.0184415
85 4 0.0178546 4.66535 3.53417 -0.00346137 0.00284489 -0.00609703
54 3 0.804715 6.8246 6.35218 0.00367522 0.00387731 -0.0131362
102 5 0.394265 7.30581 7.0942 -0.00303277 -0.00110078 -0.00484911
108 5 2.09136 7.23612 9.05991 0.00401096 0.00371672 0.00538029
60 3 -0.415584 4.29638 9.34304 0.00448302 -0.000812342 -0.0166818
76 4 -1.29447 3.77024 9.44982 0.00493539 0.000201001 -0.00687111
84 4 1.49668 4.57904 10.0916 -0.00355448 -0.00189555 0.00467873
4 1 1.54188 8.57994 7.79467 -0.00543991 0.00424654 -0.0010502
27 2 -0.182963 10.0182 5.97517 -0.00759899 -0.00133885 -0.00301864
39 2 -0.34021 11.0353 4.93912 -0.00442628 -0.00707431 -0.00419088
98 5 0.286362 9.18802 9.06575 -0.0055479 0.00571015 0.00416843
111 5 0.964261 9.93836 6.5382 2.72683e-05 0.00501151 1.67334e-05
123 5 -1.19503 9.29911 6.20787 0.000168003 -0.00223188 0.00499345
126 5 -1.69988 8.21749 8.62457 0.00344598 0.00110029 0.000329087
7 1 -1.40444 7.50938 6.87325 0.00359282 0.00463198 0.00365162
14 2 -0.955803 9.03315 9.23992 -0.000504558 0.00250404 -0.0021939
30 2 -0.815629 10.6145 11.2281 0.00631973 -0.00335686 -0.00663118
42 2 -1.54541 9.93456 10.2337 -0.00170016 -0.00669593 -0.00462961
70 3 0.243959 10.4862 11.4683 0.0189742 -0.0201528 -0.0192478
5 1 2.95244 13.9352 0.927152 -0.00292457 -0.0032771 0.00102049
15 2 0.458908 13.4786 2.3772 0.00610034 -0.00477956 0.00455629
31 2 0.587254 11.8916 4.36493 0.00110514 -0.00464988 -0.000330568
43 2 -0.134621 12.5742 3.36554 0.00100687 0.00127671 -0.00327427
99 5 1.70123 13.3375 2.18832 0.00122157 0.00557714 -0.00360794
127 5 -0.289109 14.3028 1.75273 0.00621208 0.00493392 -0.00184271
71 3 1.63186 12.0196 4.62091 7.54787e-06 0.012063 0.00317893
26 2 -1.58907 12.4971 12.8534 -0.00569588 0.00249019 0.00558756
38 2 -1.7421 11.4794 11.818 0.00179745 0.00757728 0.00503966
110 5 -0.445578 12.5868 13.4142 -0.00172972 0.00595379 0.00640518
122 5 -2.6065 13.2141 13.077 -0.00323198 0.00130213 0.00448872
51 3 1.36852 13.8207 12.6136 -0.0253679 -0.0115012 -0.00602298
117 5 5.34619 1.23998 1.32388 0.000113575 0.000917262 -0.00215151
17 2 4.32677 1.22065 2.08611 0.00582711 0.00363272 0.000888647
21 2 5.15417 3.17163 3.52819 0.00403817 -0.00200385 0.00480346
45 2 4.13259 2.41442 2.92882 0.00246627 -0.00221165 -0.000291126
52 3 7.68083 1.19979 1.1376 -0.00596741 0.0218376 0.0169653
65 3 6.19802 3.02101 3.5088 -0.0178516 0.0039439 0.0236681
96 5 7.66434 0.564662 0.368071 -0.00216881 -0.00448593 0.00479769
12 2 3.65919 2.26482 11.9216 -0.000337519 0.00403517 0.00720126
36 2 3.08884 3.32474 11.0844 0.00597857 -0.00345558 -0.000857044
80 4 1.75044 3.51539 10.8593 0.000411157 -0.000488304 0.0022265
92 5 4.92243 2.31201 12.0482 0.00246666 -0.00532936 0.00416334
116 5 2.86161 1.40407 12.4027 -0.002807 0.00429938 0.00100347
33 2 4.48352 4.17742 4.22277 -0.00713828 0.00079287 0.00702566
77 4 3.16403 3.99388 3.99067 0.00574307 0.00499647 0.0030986
9 2 5.06046 5.23973 5.04288 -0.00701681 -0.00416702 -0.00180831
20 2 2.91029 6.28071 8.95282 -0.00251487 -0.00696841 -0.00201235
49 3 6.28911 6.3089 7.98587 0.01025 -0.0194513 -0.00229063
89 5 6.3321 5.18878 5.17515 0.00399881 0.00140004 0.000722548
93 5 6.2614 6.93134 7.23043 0.00292224 -0.0041183 -0.00256032
113 5 4.26848 6.09924 5.5373 -0.00398578 -0.00572646 0.0051548
120 5 3.9386 6.27099 8.19308 0.00052382 0.0053025 -0.00251021
1 1 4.53601 7.50353 6.86424 -0.00445709 -0.0011969 -0.00533972
24 2 3.73869 4.32671 10.3982 -0.00309011 -0.00430535 0.00511819
48 2 2.72912 5.08497 9.80148 0.00688133 -0.00303624 0.00271225
68 3 4.79484 4.47029 10.3646 -0.014358 -0.0175104 0.00991771
23 2 5.34284 10.6732 3.34627 0.00370471 -0.00518555 7.61523e-05
47 2 6.36465 9.92512 3.9479 0.00568591 0.00364092 0.00747768
67 3 4.28427 10.5355 3.39802 0.0127708 0.0138994 0.0134965
119 5 5.13869 8.74241 5.54205 -0.00424797 -0.00138056 -0.00150649
10 2 4.01322 9.76543 8.69613 -5.64972e-05 -0.00012729 0.00165481
19 2 6.16668 8.72218 4.79036 -0.00146831 0.000549849 0.00595281
50 3 2.79965 8.68191 5.75431 -0.00266075 0.00199945 0.00188658
90 5 2.75656 9.82403 8.56704 0.00353224 0.00194227 0.00223533
94 5 2.82359 8.0786 6.51059 0.0010745 0.0045558 0.00446765
114 5 4.81119 8.90062 8.20357 0.00265551 -0.00381913 -0.00345362
34 2 4.58314 10.8317 9.51603 -0.00685523 -0.0011267 -0.00740626
78 4 5.92886 11.021 9.74424 0.00595247 0.000432578 -0.00742753
11 2 5.42684 12.7479 1.81902 0.00538549 -0.000793813 -0.00577843
35 2 5.99201 11.6829 2.6537 -0.00604926 0.00158773 -0.000176534
79 4 7.33666 11.4943 2.87897 0.00569494 0.000758926 -0.00309004
91 5 4.16517 12.6962 1.69379 0.00413052 0.00407713 -0.00141078
115 5 6.21919 13.6083 1.33761 0.00266862 -0.00139472 0.000142111
2 1 5.94871 15.0082 0.0016066 0.000175335 -0.00127143 0.00159961
18 2 4.75697 13.7869 11.6463 -0.00310736 -0.00541688 -0.00757941
22 2 3.92768 11.8424 10.2087 -0.00321354 0.00649265 -0.00711414
46 2 4.945 12.5897 10.8032 -0.00571697 -0.00294774 -0.00678345
118 5 3.7328 13.7694 12.4182 -0.00200868 -0.00100286 0.00498463
66 3 2.8838 11.9692 10.2685 0.0184995 -0.0231309 0.0144438
95 5 1.41235 14.4445 13.3793 -0.00211091 0.00428097 0.00348934
25 2 10.6704 2.50762 0.884922 0.00601743 -0.00706267 -0.00636408
37 2 10.8203 3.54054 1.92422 -0.00435776 0.00267786 -0.00218547
109 5 9.52181 2.42524 0.335198 -0.0029847 -0.00340726 0.00376048
121 5 11.6896 1.7996 0.665156 0.00539989 0.00294889 -0.00158941
72 3 7.44775 3.00081 9.10436 -0.000880178 -0.00126337 -0.0166753
6 1 6.12535 1.06951 12.8089 -0.00024591 -0.00146355 -0.00412093
16 2 8.623 1.51982 11.3636 -0.00525325 -0.00603928 -0.00305591
32 2 8.49498 3.11118 9.37824 0.000141239 -0.00192065 0.00420888
44 2 9.22186 2.4366 10.3703 0.00514553 -6.11391e-05 2.68764e-06
100 5 7.37641 1.67818 11.5534 -0.00447623 0.000598441 0.00618375
128 5 9.37622 0.717092 11.984 -3.06352e-05 0.00542093 -0.00055711
8 1 9.0802 0.00481233 13.7379 -0.000770528 0.00480077 -0.00127701
13 2 10.0363 5.98557 4.49281 6.82577e-05 0.00674749 -0.00423343
29 2 9.90927 4.38767 2.50443 0.00603104 -0.0038582 1.18286e-05
41 2 10.6226 5.0618 3.49412 -0.00204349 -0.0061697 -0.00646711
69 3 8.83728 4.47999 2.27701 -0.018112 -0.0229123 0.0255105
3 1 7.53157 6.43597 5.93867 -0.00207247 0.00220435 -0.00478874
28 2 9.25052 4.98278 7.75693 -0.00555704 -0.00710709 -0.00395902
40 2 9.42431 3.9697 8.79852 0.00745231 0.0026463 0.00261163
97 5 8.79098 5.82973 4.68397 0.0020202 0.00259049 0.00631698
112 5 8.12218 5.07786 7.19973 0.00528916 0.0017288 -0.00133664
124 5 10.2693 5.70178 7.53902 -0.0068525 -0.0062896 0.00268052
125 5 10.7899 6.79818 5.1129 0.00556159 0.00506016 -0.00209629
59 3 9.47944 10.7083 4.35563 -0.0199457 -0.00337366 -0.0235631
75 4 10.3771 11.2403 4.28649 -0.00342583 0.000842636 0.00394424
83 4 7.57406 10.4218 3.6588 -0.00648848 -0.00659482 0.00643532
107 5 6.98891 7.7808 4.68457 -0.00466278 0.00367764 -9.82622e-05
53 3 8.2948 8.19113 7.37581 0.0143423 0.00267085 0.00238951
101 5 8.68305 7.69658 6.63667 -0.000543172 -0.00595658 -0.00346947
62 3 6.7162 10.428 9.46602 0.0111867 -0.0101588 0.0156559
86 4 9.06442 10.3473 10.2013 0.00478955 0.00037938 0.00238389
56 3 9.71384 14.3105 0.52849 0.0258226 -0.0142705 0.023334
63 3 8.12551 12.0822 2.59523 0.0125365 0.00621644 0.0144838
87 4 10.4668 12.1695 3.3234 -0.000801378 0.00225061 -0.00584705
58 3 8.11535 11.8318 11.2391 0.0223403 0.0298326 -0.0100865
74 4 8.9785 11.2776 11.149 0.0061914 0.00283277 -0.0030489
82 4 6.17596 12.0824 10.5254 0.00327918 -0.00333706 0.00350313
104 5 7.27084 14.8057 13.5068 -0.00472876 -0.00594231 -0.00282071
106 5 5.59004 14.7385 11.5603 0.00441737 0.00129613 0.00601212
ITEM: TIMESTEP
15
ITEM: NUMBER OF ATOMS
128
ITEM: BOX BOUNDS xy xz yz pp pp pp
-2.8161053210000002e+00 1.1897069931000001e+01 0.0000000000000000e+00
0.0000000000000000e+00 1.5009448051000000e+01 -2.8161053210000002e+00
0.0000000000000000e+00 1.3739188350999999e+01 0.0000000000000000e+00
ITEM: ATOMS id type x y z vx vy vz
105 5 3.49861 0.277338 2.18863 0.00210492 0.00324973 0.00251971
57 3 0.958875 3.18001 2.45427 -0.0174143 -0.0196986 -0.0240206
73 4 0.107875 3.73718 2.58324 -0.000692841 0.00147217 -0.00289758
81 4 2.91399 2.92673 3.21181 0.00396159 0.00180282 -0.00374113
103 5 1.79758 0.190037 0.236238 -0.00510439 -0.00509207 0.00439083
55 3 -0.587271 0.688598 13.2458 0.0120576 0.00209061 0.00865272
64 3 0.977331 2.91679 11.1283 0.00476824 -0.0137617 -0.0189647
88 4 -1.3912 2.83747 10.3998 -0.00305133 -0.00336744 -0.00656655
61 3 2.34 4.54282 4.26124 -0.0234819 -0.0168738 -0.0172161
85 4 0.0160806 4.66683 3.53117 -0.00362647 0.00309191 -0.00590921
54 3 0.806436 6.82663 6.34576 0.00314915 0.00425887 -0.0124645
102 5 0.392765 7.30525 7.09177 -0.00296243 -0.00111197 -0.00487168
108 5 2.09336 7.23799 9.06262 0.00396799 0.00374872 0.00544861
60 3 -0.413017 4.29642 9.3345 0.00579005 0.000961664 -0.0174722
76 4 -1.29203 3.77037 9.44633 0.00481497 0.000339765 -0.00709382
84 4 1.49498 4.57816 10.0939 -0.00324922 -0.00161729 0.00450508
4 1 1.53917 8.58205 7.79415 -0.00540557 0.00421515 -0.00105951
27 2 -0.18673 10.0176 5.97365 -0.00745284 -0.00121135 -0.00307078
39 2 -0.342471 11.0318 4.93703 -0.00461533 -0.00714785 -0.00419309
98 5 0.283655 9.19088 9.06781 -0.00527213 0.00571395 0.00408359
111 5 0.964261 9.94087 6.53821 -3.47168e-05 0.0050176 5.9033e-06
123 5 -1.19498 9.29799 6.21037 5.70097e-05 -0.0022738 0.00502085
126 5 -1.69818 8.21802 8.62474 0.00334635 0.00100353 0.000314368
7 1 -1.40265 7.51168 6.87508 0.00356441 0.00459477 0.00363587
14 2 -0.956081 9.03444 9.23883 -0.000612658 0.00262651 -0.00214292
30 2 -0.812467 10.6128 11.2248 0.00632832 -0.00328648 -0.00649788
42 2 -1.54628 9.9312 10.2314 -0.0017844 -0.00673948 -0.00465112
70 3 0.25303 10.4763 11.4586 0.0171567 -0.0197113 -0.0192967
5 1 2.95099 13.9336 0.92766 -0.00288022 -0.0032323 0.00100851
15 2 0.461911 13.4762 2.37944 0.00589705 -0.00466635 0.00436769
31 2 0.58779 11.8893 4.36476 0.00103789 -0.00460782 -0.000355497
43 2 -0.134154 12.5748 3.36387 0.000860927 0.00136021 -0.00337332
99 5 1.70189 13.3402 2.18652 0.00141424 0.0055131 -0.00359574
127 5 -0.286005 14.3053 1.75184 0.00620328 0.00487616 -0.00171631
71 3 1.63194 12.0257 4.62256 0.000264157 0.0119928 0.00340658
26 2 -1.5919 12.4983 12.8562 -0.00563432 0.00237447 0.00548077
38 2 -1.74122 11.4832 11.8205 0.00171492 0.007463 0.00485359
110 5 -0.446444 12.5898 13.4174 -0.00173939 0.0059204 0.00640418
122 5 -2.60814 13.2148 13.0792 -0.00331778 0.00135237 0.00451956
51 3 1.35602 13.8157 12.6113 -0.0245904 -0.00849707 -0.00300077
117 5 5.34627 1.24044 1.3228 0.000193133 0.000938163 -0.00217984
17 2 4.32969 1.22248 2.08654 0.00582265 0.00365855 0.000867759
21 2 5.15605 3.17065 3.53061 0.00348049 -0.0019321 0.00485089
45 2 4.1338 2.4133 2.92866 0.00236622 -0.00226905 -0.000347268
52 3 7.6778 1.20973 1.14496 -0.00616554 0.017651 0.012208
65 3 6.19057 3.02265 3.52048 -0.0116056 0.00257794 0.0230467
96 5 7.66326 0.562485 0.370528 -0.00213305 -0.00420421 0.00504556
12 2 3.65898 2.26685 11.9251 -0.000493224 0.00408239 0.00706251
36 2 3.09171 3.32295 11.084 0.00550966 -0.00371306 -0.000693949
80 4 1.75072 3.51512 10.8605 0.000707865 -0.000620001 0.00240003
92 5 4.92368 2.30934 12.0502 0.00251509 -0.00533025 0.00418524
116 5 2.86021 1.40621 12.4032 -0.00279916 0.00428159 0.000997256
33 2 4.47995 4.17784 4.22628 -0.00714907 0.000870389 0.00704118
77 4 3.16688 3.99639 3.99224 0.00566033 0.0050516 0.00317137
9 2 5.05695 5.23765 5.04198 -0.006974 -0.00415033 -0.00179171
20 2 2.90907 6.27723 8.9518 -0.00235359 -0.00694904 -0.00206492
49 3 6.29413 6.29955 7.98441 0.00981071 -0.0178524 -0.00370423
89 5 6.33408 5.18948 5.1755 0.00389904 0.00140672 0.00070055
93 5 6.26286 6.92926 7.22916 0.00291888 -0.00420602 -0.00250971
113 5 4.26649 6.09638 5.53987 -0.00397751 -0.00571612 0.00511398
120 5 3.93886 6.27362 8.19184 0.000511186 0.00524581 -0.00247941
1 1 4.53379 7.50293 6.86158 -0.00443089 -0.001205 -0.00531216
24 2 3.73714 4.32457 10.4007 -0.00310431 -0.00424906 0.00507861
48 2 2.73246 5.08351 9.80279 0.00646981 -0.00282102 0.00254231
68 3 4.78856 4.4618 10.3694 -0.0105905 -0.016398 0.00928561
23 2 5.34472 10.6706 3.3463 0.00381192 -0.00509283 4.42714e-05
47 2 6.36749 9.92687 3.95168 0.00564257 0.00335764 0.00765004
67 3 4.28988 10.5422 3.40491 0.00950887 0.0128585 0.0140512
119 5 5.13655 8.74172 5.54131 -0.00431295 -0.00137024 -0.00147241