ITEM: TIMESTEP
0
ITEM: NUMBER OF ATOMS
284
ITEM: BOX BOUNDS xy xz yz pp pp pp
-2.8097637880000002e+00 1.2239000320000001e+01 0.0000000000000000e+00
0.0000000000000000e+00 1.5074000358999999e+01 -2.8097637880000002e+00
0.0000000000000000e+00 1.3358706116000000e+01 0.0000000000000000e+00
ITEM: ATOMS id type x y z vx vy vz
2 1 0.289058 0.222132 0.392752 0.000295238 -0.00095706 0.00216658
60 3 2.29011 0.703066 2.19819 0.00241294 -0.00411679 -0.0143419
67 3 0.011773 3.11305 3.26594 0.0165132 0.0156385 0.0132265
121 3 2.69549 1.08459 4.33725 0.0218591 0.0133769 -0.00464946
147 3 1.4596 2.65259 1.63712 -0.00610887 0.00693103 0.0149809
149 3 0.104115 1.16825 4.02818 0.0139182 0.0173892 0.0142378
188 5 1.9245 1.11981 1.40387 -0.000844336 -0.00407631 0.00225734
266 5 1.29153 3.63354 1.77395 -0.00217622 -0.000444507 0.000681122
267 5 -0.303098 0.351076 4.36254 0.00213525 -0.00602935 0.00686418
70 3 1.56074 3.24261 8.81022 0.0200286 -0.019983 -0.0188259
95 3 -1.56555 1.99107 8.8939 -0.00737484 0.0188671 0.0154747
109 3 -0.989787 3.68684 8.31856 -0.0110306 -0.0124555 0.0166668
122 3 2.4913 2.54744 4.82724 -0.0115816 0.00605109 0.0190739
150 3 -0.968249 0.642857 5.02908 0.0011879 -0.0138328 0.0138764
161 3 1.27638 0.912004 6.25756 0.0155449 0.00763723 -0.0159143
162 3 -0.121355 0.427487 6.7801 0.0229687 -0.00645623 0.024174
167 3 0.682417 1.12017 8.19829 -0.0234045 -0.00273247 -0.0021716
253 5 2.20619 1.6284 4.99852 0.00363303 -0.00282838 -0.00126912
273 5 0.851681 0.421388 7.00534 0.00409886 0.00261857 0.00442941
6 1 0.340654 1.0208 13.2904 -6.76155e-05 -0.0010817 -0.00365934
10 2 -1.86136 2.71011 12.3057 -0.000493188 0.00011196 0.00205543
102 3 -0.356685 0.546598 9.51343 -0.0114035 -0.0033765 -0.0181157
129 3 0.741592 3.73038 11.9072 -0.0133324 0.003636 -0.0131127
168 3 0.72983 1.68859 9.84539 -0.0163779 0.0201563 0.0126097
194 5 1.45715 1.50734 11.2762 0.00533048 -0.000850472 0.00110213
198 5 -0.598598 2.50744 12.3317 0.00610463 -0.00643218 0.00503222
276 5 0.157435 1.44438 9.05478 -0.00214271 0.00097454 -0.00411043
71 3 3.24325 3.82881 2.72351 -0.000804753 0.0121984 0.00343195
83 3 -0.199259 7.00959 1.40885 -0.0228048 -0.0223027 0.0244937
84 3 0.123584 5.95634 2.56312 -0.014236 -0.00797974 0.0200313
93 3 2.63324 4.76771 0.952203 0.012484 -0.0151106 -0.00867259
94 3 1.90218 6.0559 1.3239 0.00535043 0.0194843 0.0185472
104 3 3.26792 7.31382 1.54274 -0.018235 -0.0225288 -0.010345
148 3 0.389276 3.83674 1.43344 -0.0103315 0.000483573 0.00838584
234 5 0.519113 6.64078 2.00012 0.00308649 0.00532781 -0.005899
239 5 2.72484 5.74095 0.831533 -0.00390782 -0.000915868 -0.0018842
3 1 1.51649 6.47508 5.81923 -0.00191365 0.00248834 -0.00430082
11 2 -1.00157 5.00425 5.1668 0.00516629 -0.000249796 -0.00554356
57 3 0.530277 7.23365 7.85889 -0.0222781 -0.0142442 -0.0217344
110 3 -0.184308 4.90377 7.70999 -0.00623771 0.0250972 0.0268201
185 5 0.175526 6.88986 7.00289 0.00148283 0.00389086 -0.000667609
195 5 2.73846 5.79787 4.52488 -0.00579007 0.00132712 0.00257953
199 5 0.234998 5.23819 4.98094 0.0048344 0.00580685 0.00244053
214 5 2.19375 5.15205 7.03173 0.00207269 -0.00233907 0.00150642
247 5 -0.116139 3.95867 7.95269 0.000536529 -0.00661422 0.0011017
26 2 -1.85976 4.79194 10.6954 -0.00554657 0.00304123 0.00641385
34 2 -2.36913 3.89321 11.5943 -0.00753584 -0.000502029 -0.00675678
66 3 -0.818485 4.88805 10.3848 0.0250528 -0.0246483 0.0140438
123 3 -1.65952 6.6474 12.9535 0.00210418 -0.00753796 0.0211054
130 3 1.10072 5.31508 11.6917 0.00167491 -0.0167321 -0.0219505
157 3 0.319317 7.00373 12.2881 -0.00184785 0.00340031 0.0106665
158 3 1.17451 7.21939 10.9464 0.0254265 -0.0205437 0.00104082
254 5 -1.51465 7.32689 12.2701 -0.000961304 0.00308776 -0.00206872
257 5 1.34761 4.37056 11.4614 0.00622133 -0.00432375 -0.00484771
271 5 1.22824 6.92361 11.8958 -0.00135047 -0.00185678 -0.00403
13 2 -0.0186229 8.36149 4.22279 0.00011036 0.00739134 -0.00368813
37 2 0.192814 9.51621 3.33516 -0.00491991 0.00350839 -0.00141195
45 2 1.41716 10.1242 3.34308 0.00288641 -0.00160998 0.00047593
73 3 2.35209 9.82618 3.78849 -6.44411e-05 0.00871936 -0.00608621
103 3 2.99167 8.77463 0.802959 -0.0200796 -0.0196982 0.0196151
244 5 3.26598 8.28436 1.67876 -0.00654376 -0.00553323 0.000645227
36 2 -1.75896 10.8683 8.49809 0.00681083 -0.0026789 -0.000584391
61 3 2.34979 8.71375 6.32936 -0.0236038 -0.0232505 -0.0200106
97 3 2.59716 10.9266 6.95525 0.00980607 0.0115502 0.0264419
145 3 -0.973135 10.316 6.08921 -0.0153027 0.0225975 -0.00778955
189 5 2.678 7.79319 6.49201 -0.00555342 0.00530457 0.000890557
201 5 1.05535 7.81574 4.58574 -0.00320312 0.00460181 0.000484614
208 5 -1.32461 9.00463 7.20615 0.00308245 0.00585453 -0.00462398
241 5 1.98298 10.536 6.30604 0.00539614 0.00660197 0.00680215
113 3 1.01815 8.64639 9.40343 -0.0151787 -0.0218708 0.022225
115 3 -1.51389 9.26288 10.7906 0.0114355 -0.00467122 0.00180741
116 3 -1.1423 8.07208 9.90604 -0.0104604 0.0184442 0.00550419
124 3 -1.11394 8.12521 12.7174 -0.0272188 -0.0244925 0.0124268
152 3 0.222672 9.50513 12.087 0.0233557 0.00124609 -0.00397862
176 3 -1.66395 9.89068 12.7672 -0.0265535 0.020791 -0.0190277
249 5 1.4172 7.75774 9.29572 -0.00365264 -0.000729046 0.000350719
250 5 -0.822124 8.96215 10.1626 -0.00173407 0.00447484 0.00391423
268 5 -0.126549 9.63737 12.9886 -0.00688619 -0.00597688 -0.00194259
33 2 0.0639906 11.4548 2.20014 -0.00673224 0.000790668 0.00745354
64 3 3.80004 13.6647 0.879229 0.00779133 -0.00603349 -0.0217308
166 3 2.98569 12.5662 1.78192 -0.00587324 -0.0175958 -0.019204
205 5 0.351331 13.7267 1.54509 -0.00486135 0.00411949 0.00557322
225 5 1.37624 11.3165 2.65692 -0.00593208 -0.0013625 6.70951e-05
275 5 3.43343 12.7211 0.937516 0.00469205 -0.00249051 0.00490055
48 2 -0.441136 12.6001 8.76117 0.00757575 -0.0031491 0.00358426
76 3 0.494267 13.1468 8.68201 0.0201077 0.00060515 -0.0225921
98 3 1.55826 11.3505 5.90691 -0.0228215 0.0239307 0.0184635
143 3 1.19979 13.6775 5.72774 -0.00612451 0.0169775 0.0271029
144 3 0.288585 12.8884 4.75826 0.00413343 -0.0190957 -0.00905707
228 5 -0.479657 11.3225 8.25446 -0.000929874 -0.00303005 -0.00627809
264 5 1.19252 12.885 5.15478 -0.00632535 -0.00676453 -0.00409693
16 2 -1.97319 14.1158 10.0502 -0.0051924 -0.00611611 -0.00247025
40 2 -1.66042 12.9008 9.32341 0.00731641 0.00275313 0.00328097
101 3 -0.911252 14.7246 11.8391 -0.00162854 -0.0226232 -0.0124606
153 3 0.901727 12.5511 12.5876 0.0182244 0.00760125 -0.0201054
154 3 -0.0440313 12.522 11.4173 0.000881265 0.0182946 0.00171336
177 3 -1.14724 12.5302 13.0504 -0.0080186 0.00748523 -0.00503776
178 3 -2.13695 11.5645 12.2726 0.0126756 -0.0148675 -0.0168148
204 5 -0.868844 14.7877 10.2635 0.00237495 -0.00568551 0.00359682
243 5 -1.00164 14.9364 12.7976 0.00595868 0.00689114 0.00270321
269 5 0.927005 12.5247 11.5957 -0.00233977 0.00488999 0.00709129
281 5 -1.73557 12.4674 12.271 -0.00237365 -0.00287779 0.0041659
8 1 6.21088 0.186904 0.120569 -0.000646668 0.00515842 -0.000733831
23 2 5.25678 2.64222 1.04988 0.00379324 -0.00491157 0.000642652
51 2 5.38813 3.66553 2.04447 -0.00763107 -0.00386356 -0.00189016
127 3 5.00384 0.376253 2.92999 0.0259551 0.0208794 -0.00661373
128 3 4.75778 0.824173 4.39667 0.000274209 0.0233352 -0.000703377
215 5 4.09395 2.48671 0.590309 0.00671903 0.00238058 0.00545053
219 5 6.30716 2.00542 0.643749 1.47017e-05 0.00584992 2.58273e-05
256 5 4.4732 1.00153 3.47574 0.00579141 0.0044603 0.006097
54 2 4.84275 3.39292 8.85032 0.00103114 0.00132257 -0.00339056
78 3 5.87278 3.64115 8.62665 0.0250317 0.0038269 -0.0252325
92 3 5.24499 0.739566 8.7545 0.0100608 -0.020036 0.0178014
105 3 3.69658 1.16106 6.20997 0.00983877 0.0152778 0.01052
106 3 4.9889 2.05399 6.13025 0.0184451 0.00606776 0.0262116
133 3 5.79507 3.16048 4.46655 -0.0240019 -0.000571138 0.0227194
139 3 6.22522 0.409797 5.73795 -0.0270693 -0.0228779 0.0185737
245 5 4.67504 1.1266 6.30877 0.00172941 -0.00349024 0.00078025
259 5 5.91856 3.2839 5.42884 0.000732188 -0.00657556 0.00685249
18 2 2.69396 1.43232 11.0073 -0.00278928 -0.00503342 -0.00724854
30 2 3.23391 2.2843 9.92701 0.00645609 -0.00309887 -0.00625199
42 2 2.61745 3.10282 9.01904 -0.00135918 -0.0061143 -0.00381882
63 3 5.43403 0.257412 12.3198 0.0120433 0.00265366 0.016765
131 3 4.26652 3.5368 13.013 -0.00382207 0.0117416 0.022776
222 5 3.50858 0.666694 11.6276 0.00500544 0.00325408 -0.00186587
230 5 4.62271 2.43646 9.81948 -0.000995769 -0.000676921 -0.000502312
19 2 3.92835 6.15797 4.26184 -0.00111416 0.00051399 0.00653269
31 2 4.70888 5.25501 3.4538 0.00128578 -0.00439787 0.000209093
43 2 4.26801 4.17193 2.77262 0.00140938 0.00127841 -0.00239502
55 2 6.47964 4.39637 2.39591 0.00391215 0.00106605 0.00237076
79 3 7.50407 4.3301 2.06436 0.0240735 0.00290871 -0.00906912
136 3 5.72817 6.67694 1.08834 0.00152642 -0.00138384 0.0105437
231 5 6.13331 5.37874 3.3146 -0.00662156 0.00223627 0.00521524
260 5 6.40592 7.34406 1.31676 0.0022892 0.00550003 -0.00242927
22 2 3.38924 4.93289 7.38864 -0.00344343 0.00695177 -0.00651999
50 2 3.64979 3.83435 8.33871 -0.000866703 0.000459115 0.00145625
62 3 6.60632 6.63568 5.78322 0.0108249 -0.00594018 0.0179832
134 3 5.77383 4.23322 5.61968 0.0250167 0.0247696 -0.0201366
190 5 6.29871 7.19366 6.51331 0.000765284 0.00159726 -0.00611035
218 5 4.38531 5.6431 6.99947 -0.000817954 0.000882296 -0.00615153
223 5 4.51416 7.22727 4.66035 -0.00100189 0.00603634 -0.00452818
85 3 4.97129 6.17461 8.97852 -0.0104479 0.00979017 -0.022784
88 3 4.56313 7.3788 12.1263 -0.00863017 -0.00870996 -0.0252849
132 3 2.78533 4.45959 11.5387 -0.00753278 -0.0154857 0.0187249
137 3 3.82956 5.99278 11.4051 -0.018798 0.014108 0.00068141
138 3 2.88444 7.19221 11.9993 0.00659323 0.00024292 0.00318678
235 5 5.63972 6.04715 9.67573 -0.00335947 -0.00616883 0.00561874
258 5 3.82246 4.68505 11.4807 0.00427902 0.00250873 -0.00561424
261 5 3.76821 7.10971 11.5469 -0.00214323 0.00590682 -0.00270242
272 5 4.24814 4.5299 12.8917 0.00465732 0.00296134 -0.00311778
135 3 6.02081 8.17826 0.983123 0.0229125 -0.0236788 -0.0140448
151 3 4.38899 10.2783 0.183579 -0.0135026 -0.0189581 0.012154
155 3 5.52651 9.23779 3.4144 -0.00820596 0.0244975 -0.00840975
156 3 4.22203 9.00924 2.50565 0.0012766 0.00307207 0.00717019
171 3 5.22583 10.2727 1.54989 0.0241293 0.012869 -0.0260304
172 3 7.21766 10.0376 0.875954 -0.0131731 0.00587537 0.0134061
183 3 7.26332 7.93891 3.32845 -0.0113328 -0.0152745 0.0206657
270 5 4.87758 9.72626 2.8881 0.00112651 0.00288775 0.00702185
278 5 5.32187 10.4318 0.527091 0.00649122 -0.00361512 -0.0018185
7 1 4.4959 7.6422 6.49256 0.00375079 0.00500177 0.00422948
20 2 5.28995 8.7845 8.90148 -0.00267364 -0.00652251 -0.00140429
21 2 5.98155 10.0961 5.79942 0.00459319 -0.00170095 0.00533864
217 5 4.88717 9.50114 6.07778 -0.00103408 -0.000532805 -0.00354852
224 5 4.4089 8.07558 8.29468 0.00343164 -0.00339365 -0.00644781
32 2 4.83102 9.58391 9.99093 0.000242487 -0.0016831 0.00493292
44 2 5.54382 10.273 10.9327 0.00519081 0.000737541 0.000110456
52 2 4.5713 11.0146 11.6835 -0.00170933 0.00745215 0.00627436
56 2 3.33472 10.7166 11.158 0.00745807 -0.00424501 0.00745924
80 3 2.35022 11.1322 11.3552 0.000503441 0.000343909 0.00830136
114 3 2.34605 7.89829 9.00471 0.0117565 -0.0143216 -0.0128393
232 5 3.45707 9.82117 10.1166 -0.00190467 0.000924539 0.00503729
17 2 7.08179 13.6371 2.38098 0.00583927 0.00377578 0.00148289
29 2 6.47162 12.8848 3.4779 0.0066734 -0.00362066 0.000697788
41 2 6.98796 11.8649 4.23114 -0.0022173 -0.00650306 -0.00658052
165 3 5.88102 11.6532 0.189155 0.0114061 -0.00846514 -0.0046816
192 5 4.48138 14.9633 0.233224 0.000223453 0.00669598 -0.00261581
221 5 6.43368 14.647 1.91633 -0.00103518 -0.00540382 -0.00286745
229 5 5.09758 13.0507 3.78432 -0.00332297 0.00457123 -0.00655758
49 2 5.90196 11.3112 4.98097 0.00305646 -0.00580266 -0.000241663
53 2 4.78749 12.0442 4.67334 0.00433835 0.000719704 0.000782146
77 3 3.7616 11.9648 5.01189 0.0216028 0.0188831 0.0118617
91 3 4.64684 14.5609 8.04049 0.0182737 0.0172062 -0.00404406
179 3 4.43093 12.5339 7.61442 0.00898695 0.000569589 -0.0197973
180 3 3.13892 13.1703 8.27172 -0.00562061 0.0249775 -0.0189531
238 5 5.07093 14.865 8.86959 -0.00508034 -0.00437991 -0.00341337
282 5 3.59305 12.9955 7.39713 -0.00413642 -0.00650771 -0.00376152
24 2 4.81195 12.0565 12.6555 -0.00301222 -0.0041021 0.00572969
99 3 3.42763 14.1228 10.0337 0.00452897 0.0236885 -0.0129643
100 3 2.07537 13.3947 10.5474 -0.016314 0.0034467 0.025969
191 5 5.20219 14.9448 13.1855 -0.00666384 0.00418406 -0.00543492
220 5 3.76022 12.4847 13.312 0.00479635 -0.00331832 -0.000839489
242 5 2.60654 13.6675 9.75274 0.0056176 0.00180902 0.00406948
15 2 10.4471 1.11451 2.1789 0.00643249 -0.00441074 0.00526327
27 2 11.2046 3.087 3.54465 -0.00752836 -0.00125542 -0.0022743
39 2 10.1645 2.21218 3.07967 -0.00387611 -0.00653864 -0.00371497
47 2 8.99827 2.6107 3.63764 0.00565019 0.00445077 0.00774705
75 3 8.01205 2.17361 3.57988 -0.0121858 0.00554415 0.0144533
203 5 9.5374 0.262577 1.93418 -6.92786e-05 0.00567163 0.00417281
211 5 11.6258 1.11118 1.72587 0.00383651 0.00525208 -0.00449126
96 3 9.40923 2.57937 8.09876 -0.0080201 -0.0177656 0.0200195
108 3 9.67987 0.974062 6.85296 0.0173317 0.0153922 0.0222626
173 3 8.73134 3.76123 6.39551 -0.003197 -0.0180859 -0.0126126
174 3 7.67419 2.63644 6.38089 -3.65247e-05 -0.0133758 -0.00278639
246 5 10.4176 0.43534 6.51911 -0.00341658 -0.00673462 0.00537028
262 5 7.19643 0.433809 5.56099 -0.00287173 -0.00229131 -0.00414732
279 5 8.34575 3.05798 6.95244 0.000545745 -0.00243966 -0.00364624
159 3 6.14246 2.65905 12.5253 -0.0119698 -0.0222975 0.00209995
160 3 6.67327 2.18141 12.7049 -0.00662827 0.0113164 -0.0267692
163 3 7.8825 0.848622 10.0521 0.0170471 -0.0180371 -0.0110847
164 3 8.15101 2.26461 9.58023 0.0240261 0.0245045 0.000402378
206 5 9.50528 1.92518 12.7864 -0.000519736 -0.00180938 -0.00201718
240 5 9.94593 2.64497 8.92676 0.0061276 -0.00390849 0.000188911
274 5 7.41186 1.63394 9.68926 -0.00090656 0.0051668 0.000869594
35 2 10.6199 3.99423 4.34926 -0.00671337 0.00155709 0.00056232
119 3 8.31395 6.4454 1.65807 -0.0157623 -0.004467 -0.00485322
120 3 8.91995 5.77046 2.93222 0.00280102 0.0225682 -0.00873007
141 3 10.7446 4.20679 0.140076 -0.0112451 -0.0148026 -0.0188486
142 3 10.3102 5.18247 1.29349 -0.00024758 -0.0124146 -0.00519803
227 5 9.20132 3.78784 4.37595 -0.00515019 1.22068e-06 -0.00281562
252 5 9.14494 6.35479 2.17829 0.00358365 0.00306645 -0.00397788
263 5 10.8416 4.37999 1.09602 0.00588369 -0.00655585 -0.00454262
1 1 10.6604 7.29785 6.54518 -0.00437844 -0.000875868 -0.00483597
202 5 8.04321 6.65675 8.49336 0.00155379 0.00435929 -0.0061605
207 5 10.4356 5.56092 5.99709 0.00455206 0.00132062 0.00292798
210 5 10.2762 6.73467 8.43109 -0.0034749 -0.000438738 0.00173533
14 2 9.19285 6.35185 8.97342 -0.000282281 0.0025703 -0.00171279
38 2 9.24466 5.51413 10.1631 0.0022848 0.00783788 0.00570651
46 2 8.15029 5.1125 10.8614 -0.00610113 -0.00311583 -0.00659233
74 3 7.12046 5.4267 10.8395 0.0230671 0.0102293 -0.012308
86 3 6.48674 6.24187 9.20983 0.0169055 0.00448191 0.011441
226 5 8.48237 4.10361 11.7407 -0.000404066 -0.00338283 -0.00268625
25 2 11.5714 10.3427 2.54872 0.00619898 -0.00719272 -0.00622511
65 3 10.5512 10.1411 2.23447 -0.0238457 0.00590206 0.0253113
125 3 8.50424 8.54073 0.113636 0.0228664 0.0212432 -0.00658036
126 3 8.21346 9.69794 2.00947 0.0151907 0.00603062 0.00253711
184 3 8.77922 7.89208 3.15168 0.00767912 0.0185765 -0.00961767
248 5 11.1784 7.85824 0.325603 0.000677705 -0.00425839 -0.00261931
255 5 8.16132 9.81503 1.03507 0.00154826 -0.00626435 0.00321836
284 5 8.07476 8.41508 3.61384 0.000889263 0.00264252 -0.00412257
4 1 7.65337 8.14785 7.29771 -0.0053976 0.00463928 -0.00047698
12 2 10.0714 9.61769 7.95329 0.000176975 0.00422027 0.00803547
58 3 8.6731 7.98511 5.1901 0.0248187 0.0267708 -0.0113179
146 3 10.6801 10.6928 4.68148 -0.00117745 0.0258239 0.0136917
186 5 8.88434 7.60035 6.07834 -0.00331088 0.00223013 -0.00205397
196 5 6.52653 8.8285 8.64741 -0.00256678 -0.0014817 -0.0028315
200 5 8.89663 9.23778 8.22064 0.0042543 -0.00191995 0.00300505
209 5 11.0669 8.00402 4.65759 -0.00358455 0.00635821 0.00669807
213 5 7.14722 9.73182 6.1926 -0.00688634 0.00516269 0.000354207
265 5 10.9148 11.0615 5.55159 0.00322464 -0.00205817 -0.00434916
72 3 6.6338 10.3255 11.0103 -0.000555414 -0.000388343 -0.0165133
87 3 6.08071 8.48398 11.9574 -0.00443291 0.00771495 -0.0198072
111 3 7.49446 7.61053 13.3034 0.000965878 0.0211235 0.00129299
112 3 8.9776 7.96619 12.9141 0.0229371 0.00821609 -0.00351941
175 3 8.99106 9.93328 13.1377 0.0224693 0.00591051 0.00356681
236 5 5.89965 7.88595 12.7204 -0.00276228 0.00124147 0.00177256
280 5 9.61979 10.0452 12.4016 0.000923781 -0.00638689 -0.0010874
5 1 9.39696 13.9721 0.639683 -0.00287948 -0.00303749 0.00160484
9 2 11.8236 12.7018 1.58574 -0.00669769 -0.00376473 -0.00113926
69 3 8.02742 11.5447 4.24378 -0.0198135 -0.0228612 0.0259313
90 3 11.0846 14.0844 3.74839 0.0161328 0.00923352 0.0105849
193 5 8.20985 13.2312 1.97698 0.000387469 -0.00444326 0.000644626
197 5 10.6341 12.6283 1.14653 0.00625082 -0.00189735 -0.000795856
237 5 10.7389 13.1668 3.87188 -0.000634835 -0.00433703 0.00477156
81 3 7.09051 11.3219 7.32511 0.0133267 0.0103527 -0.0111697
82 3 6.97962 12.8403 7.7173 0.0147804 -0.013154 0.0133692
89 3 10.0387 13.2558 4.53789 0.0166881 0.00655363 0.00417671
107 3 10.0874 14.5519 6.49253 -0.0185087 0.016911 0.00161419
140 3 7.42602 14.6781 5.10579 0.000139817 0.00269101 -0.0105151
169 3 7.53951 14.8725 7.19394 -0.0129887 -0.00723586 0.021895
170 3 7.01536 14.5128 8.64904 -0.0205456 0.00933929 -0.0131568
181 3 8.94546 13.1279 7.21268 -0.0106002 0.0147344 -0.00762442
182 3 9.97043 12.2824 6.23881 -0.00981995 -0.0264483 0.00306105
233 5 6.5208 11.9521 7.80322 -0.00583399 0.00317307 0.00677509
277 5 7.69222 14.2749 7.96293 -0.00435099 0.00442923 0.00461002
283 5 9.43734 13.1181 6.35794 -0.00458404 0.00633922 0.00260501
28 2 9.7352 11.7727 9.19038 -0.00581718 -0.00663838 -0.00379592
59 3 8.24304 14.3997 12.0894 -0.0201857 -0.000258955 -0.0253832
68 3 8.73005 11.6579 9.56781 -0.0182705 -0.0186788 0.0114693
117 3 6.50163 12.2969 9.56994 0.000860968 0.00469192 -0.00710461
118 3 6.67529 12.6012 11.1421 -0.00722672 -0.00272456 0.0215608
187 5 8.04618 14.7318 12.9939 0.00275733 -0.00511814 0.00288698
212 5 9.15031 14.4502 10.4555 -0.0062688 -0.00170848 -0.00516387
216 5 5.983 12.4954 12.8131 0.00647288 0.00338601 -0.00423741
251 5 6.62646 12.9946 10.2504 -3.46717e-05 -0.00186465 0.000797787
ITEM: TIMESTEP
5
ITEM: NUMBER OF ATOMS
284
ITEM: BOX BOUNDS xy xz yz pp pp pp
-2.8097637880000002e+00 1.2239000320000001e+01 0.0000000000000000e+00
0.0000000000000000e+00 1.5074000358999999e+01 -2.8097637880000002e+00
0.0000000000000000e+00 1.3358706116000000e+01 0.0000000000000000e+00
ITEM: ATOMS id type x y z vx vy vz
2 1 0.288078 0.221338 0.394024 -0.004124 -0.00219452 0.00290386
60 3 2.29127 0.700856 2.19126 0.00234154 -0.00482985 -0.0131724
67 3 0.0200563 3.12064 3.27246 0.0163323 0.0146855 0.0129116
121 3 2.70628 1.09153 4.33503 0.0212827 0.0144139 -0.00422905
147 3 1.45655 2.65613 1.64473 -0.00608499 0.00711306 0.0154277
149 3 0.111184 1.17679 4.03531 0.0141703 0.0164087 0.0144325
188 5 1.9241 1.11775 1.40498 -0.000792835 -0.00412292 0.00217049
266 5 1.29044 3.63334 1.77431 -0.00219178 -0.000347219 0.000750118
267 5 -0.302017 0.348078 4.36595 0.00219527 -0.00593686 0.00674632
70 3 1.57049 3.23238 8.80096 0.0186951 -0.0208778 -0.0182404
95 3 -1.56868 1.99999 8.90155 -0.00478995 0.0164755 0.0150944
109 3 -0.995292 3.68067 8.32675 -0.0107379 -0.0121282 0.0159796
122 3 2.48537 2.55032 4.83684 -0.012133 0.00547699 0.0193271
150 3 -0.968016 0.635901 5.0364 -0.000209288 -0.0139917 0.0153585
161 3 1.28444 0.916009 6.24938 0.0164935 0.00819704 -0.0165201
162 3 -0.110181 0.424059 6.7922 0.021399 -0.00725124 0.0241028
167 3 0.670587 1.11878 8.19757 -0.0237823 -0.00284146 -0.00077533
253 5 2.208 1.62699 4.99788 0.00360605 -0.00282764 -0.00127612
273 5 0.853765 0.422657 7.00753 0.00426815 0.00246696 0.00432912
6 1 0.341725 1.0206 13.2884 0.00425763 0.000248818 -0.00438124
10 2 -1.86155 2.71015 12.3067 -0.000284724 2.24173e-05 0.00183458
102 3 -0.361892 0.54531 9.50453 -0.00937925 -0.00173652 -0.0174666
129 3 0.735246 3.73239 11.9007 -0.0120161 0.00439468 -0.0130163
168 3 0.721705 1.69846 9.85158 -0.0161934 0.019214 0.0120398
194 5 1.45981 1.5069 11.2768 0.00528337 -0.000906764 0.00111729
198 5 -0.595591 2.50424 12.3342 0.00591216 -0.00636189 0.00502187
276 5 0.156321 1.44487 9.05276 -0.00231606 0.000987012 -0.00392659
71 3 3.24286 3.83466 2.72547 -0.000775755 0.0111708 0.00435867
83 3 -0.210835 6.99852 1.42107 -0.0235402 -0.0218619 0.0242491
84 3 0.116345 5.95239 2.57296 -0.0144124 -0.00742691 0.0189763
93 3 2.63936 4.76047 0.947843 0.0119294 -0.0136099 -0.00875335
94 3 1.90482 6.06532 1.33318 0.00527609 0.0180567 0.0184966
104 3 3.25879 7.30249 1.53714 -0.0182372 -0.0224648 -0.012018
148 3 0.383826 3.83691 1.43738 -0.0113819 0.00016976 0.00740911
234 5 0.52067 6.64342 1.99719 0.0031251 0.00520072 -0.00578581
239 5 2.72285 5.74049 0.830598 -0.00403345 -0.000952778 -0.00185301
3 1 1.51553 6.47631 5.81708 -0.00189625 0.00243501 -0.00430754
11 2 -0.999024 5.0041 5.16401 0.00499589 -0.000319409 -0.00557156
57 3 0.519357 7.22664 7.84842 -0.0211991 -0.0135849 -0.0196478
110 3 -0.187282 4.91595 7.72365 -0.00562402 0.0231804 0.0278929
185 5 0.176255 6.89179 7.00253 0.00142134 0.0038437 -0.000793757
195 5 2.73558 5.79856 4.52617 -0.00570579 0.00139969 0.00260659
199 5 0.237423 5.24111 4.98216 0.00486428 0.00586083 0.00241639
214 5 2.19477 5.15087 7.03247 0.00198933 -0.00236695 0.00147855
247 5 -0.115887 3.95542 7.95323 0.000453096 -0.00639288 0.00106048
26 2 -1.86254 4.79347 10.6986 -0.00553338 0.00306632 0.00628677
34 2 -2.37289 3.89295 11.5909 -0.00751617 -0.000543231 -0.00660741
66 3 -0.806172 4.87576 10.3919 0.0238698 -0.0244871 0.0145577
123 3 -1.65828 6.64366 12.9638 0.00292477 -0.00715784 0.0198062
130 3 1.10169 5.30671 11.6809 0.00218002 -0.0165728 -0.0212069
157 3 0.318792 7.00551 12.293 -0.000161412 0.00372456 0.00862282
158 3 1.18709 7.2093 10.9466 0.0248336 -0.0197527 -0.00030445
254 5 -1.51513 7.32842 12.2691 -0.000979278 0.00302006 -0.00195185
257 5 1.35073 4.36839 11.459 0.00625126 -0.0043997 -0.00491374
271 5 1.22753 6.92267 11.8938 -0.00146911 -0.00190486 -0.00396833
13 2 -0.0186635 8.36518 4.22096 -0.000285242 0.00737048 -0.00362032
37 2 0.19032 9.51796 3.33449 -0.00504346 0.00349137 -0.0012649
45 2 1.41863 10.1235 3.34328 0.00297609 -0.00147033 0.000327932
73 3 2.35245 9.83047 3.78557 0.00161628 0.00837767 -0.00552852
103 3 2.98195 8.76445 0.813217 -0.0188226 -0.0209041 0.0212757
244 5 3.26268 8.2816 1.67908 -0.00665708 -0.00553201 0.000658491
36 2 -1.75559 10.8669 8.49783 0.00666367 -0.00276301 -0.000433974
61 3 2.33816 8.70207 6.31946 -0.0229626 -0.02319 -0.0195935
97 3 2.60212 10.9325 6.96834 0.00979743 0.0118824 0.0256658
145 3 -0.980958 10.3271 6.08529 -0.0158041 0.0214409 -0.00764889
189 5 2.67521 7.79583 6.49245 -0.00557213 0.00525556 0.000884157
201 5 1.0538 7.81802 4.58597 -0.00298848 0.00449761 0.000459463
208 5 -1.32304 9.00755 7.20383 0.00320596 0.00582399 -0.00466219
241 5 1.98567 10.5394 6.30944 0.00535691 0.00672192 0.00682911
113 3 1.01063 8.63566 9.4146 -0.0149133 -0.0208289 0.0224471
115 3 -1.5083 9.26058 10.7913 0.0107961 -0.00441253 0.00147161
116 3 -1.14729 8.08139 9.90889 -0.00954425 0.0186067 0.00585051
124 3 -1.1277 8.1129 12.7235 -0.0276103 -0.024377 0.0121641
152 3 0.234391 9.50573 12.0849 0.0234042 0.00117837 -0.0044398
176 3 -1.67756 9.90103 12.7577 -0.0274947 0.0205116 -0.0187345
249 5 1.4154 7.75734 9.29587 -0.00353879 -0.000874993 0.000259127
250 5 -0.823003 8.96438 10.1646 -0.00177171 0.00447859 0.00393966
268 5 -0.129998 9.63438 12.9877 -0.00689946 -0.00598677 -0.00189009
33 2 0.0606166 11.4552 2.20386 -0.00675809 0.000872018 0.00741392
64 3 3.80378 13.6615 0.868565 0.007155 -0.00697641 -0.0208617
166 3 2.98254 12.5576 1.77288 -0.00684677 -0.0167414 -0.0167201
205 5 0.348919 13.7287 1.54785 -0.0047874 0.00412254 0.00550017
225 5 1.37329 11.3159 2.65694 -0.00584971 -0.00130507 1.60615e-05
275 5 3.4358 12.7199 0.939905 0.00478696 -0.00244493 0.0046393
48 2 -0.437303 12.5985 8.76295 0.00776733 -0.00304971 0.00355313
76 3 0.504214 13.1472 8.67079 0.0194871 0.00104887 -0.022257
98 3 1.5471 11.3623 5.91626 -0.0216524 0.0228559 0.0190388
143 3 1.1967 13.6859 5.74116 -0.00629266 0.0157742 0.0261404
144 3 0.290659 12.8789 4.75389 0.00402856 -0.0191773 -0.00845953
228 5 -0.480077 11.321 8.25132 -0.000747449 -0.00294789 -0.00627145
264 5 1.18935 12.8817 5.15276 -0.00634252 -0.00664886 -0.00395338
16 2 -1.97569 14.1127 10.0489 -0.0048314 -0.00636241 -0.00273378
40 2 -1.65682 12.9022 9.3251 0.00704396 0.00289589 0.00347076
101 3 -0.912372 14.7133 11.8323 -0.00285746 -0.0223963 -0.014547
153 3 0.911403 12.5549 12.5779 0.0204356 0.00756245 -0.0181304
154 3 -0.0434792 12.5311 11.4179 0.00129848 0.0180432 0.000811888
177 3 -1.15149 12.534 13.0482 -0.00886405 0.0076736 -0.00359517
178 3 -2.13094 11.5567 12.2642 0.0113879 -0.016014 -0.0167135
204 5 -0.867637 14.7849 10.2653 0.00245002 -0.00558784 0.00366004
243 5 -0.998639 14.9398 12.7989 0.00604841 0.00686134 0.00270198
269 5 0.925827 12.5272 11.5992 -0.00236623 0.00494643 0.00700831
281 5 -1.73674 12.466 12.2731 -0.00232772 -0.00282638 0.00406613
8 1 6.2106 0.189488 0.120214 -0.000462807 0.00517621 -0.000688338
23 2 5.25875 2.63978 1.05017 0.00407462 -0.00482949 0.000524967
51 2 5.3843 3.6636 2.04357 -0.00765989 -0.00383555 -0.00169783
127 3 5.01669 0.386786 2.92707 0.0253785 0.0213141 -0.00495459
128 3 4.75806 0.835745 4.39648 0.000916869 0.0228923 0.00015575
215 5 4.09726 2.48789 0.593021 0.0065223 0.00230529 0.00539164
219 5 6.30716 2.00832 0.643762 -7.69485e-06 0.00574394 2.34314e-05
256 5 4.47609 1.00375 3.47876 0.00574765 0.00440935 0.00594618
54 2 4.84327 3.39358 8.84861 0.0010946 0.00131335 -0.00346316
78 3 5.88524 3.64315 8.61402 0.0244044 0.00408568 -0.0251728
92 3 5.24988 0.729785 8.76338 0.00954147 -0.0187735 0.0177153
105 3 3.70149 1.16888 6.21508 0.00966627 0.0159989 0.00989489
106 3 4.99819 2.05701 6.14326 0.0186898 0.00586699 0.0258199
133 3 5.78306 3.16042 4.47799 -0.0240467 0.000223935 0.0227705
139 3 6.21186 0.398591 5.74728 -0.0259164 -0.0219164 0.0186254
245 5 4.67591 1.12483 6.30917 0.00175433 -0.00357225 0.000824125
259 5 5.91892 3.28062 5.43229 0.000714388 -0.00651029 0.00697225
18 2 2.69257 1.42981 11.0037 -0.00274944 -0.00497296 -0.00731403
30 2 3.23712 2.28272 9.92392 0.00637042 -0.00322778 -0.00611126
42 2 2.61678 3.09979 9.0171 -0.00129266 -0.00600134 -0.0039442
63 3 5.44014 0.258703 12.3283 0.0124585 0.002642 0.0167474
131 3 4.26471 3.54304 13.0244 -0.00343807 0.013125 0.0227143
222 5 3.51106 0.668321 11.6266 0.00493262 0.00325362 -0.0018878
230 5 4.62222 2.43611 9.81923 -0.00095004 -0.00069679 -0.000523984
19 2 3.9278 6.15824 4.26508 -0.0011038 0.000577495 0.00640349
31 2 4.70958 5.25282 3.45396 0.0015049 -0.00435418 0.000418393
43 2 4.26872 4.17256 2.7714 0.00140637 0.00122677 -0.00250657
55 2 6.48163 4.39692 2.39713 0.00408262 0.00110623 0.00249015
79 3 7.51609 4.33157 2.05962 0.0236901 0.00301207 -0.00979074
136 3 5.72928 6.67626 1.09373 0.00290776 -0.00134218 0.0110284
231 5 6.12997 5.37985 3.31721 -0.0067362 0.00220101 0.00524063
260 5 6.40705 7.3468 1.31553 0.00224974 0.00544392 -0.0024605
22 2 3.38756 4.93639 7.38539 -0.00326468 0.00703363 -0.00648527
50 2 3.64932 3.83459 8.33944 -0.000986291 0.00049482 0.00144369
62 3 6.6118 6.63247 5.792 0.0111648 -0.00700749 0.016976
134 3 5.78635 4.24523 5.60953 0.0251266 0.0228639 -0.0204879
190 5 6.29909 7.19447 6.51027 0.000768417 0.00167353 -0.00603708
218 5 4.38489 5.64354 6.9964 -0.000853912 0.000872128 -0.00614049
223 5 4.51363 7.23027 4.65808 -0.0011229 0.00595838 -0.00456388
85 3 4.96615 6.17958 8.96745 -0.00974827 0.0100254 -0.0211182
88 3 4.55884 7.37442 12.1138 -0.00833858 -0.0087122 -0.0241744
132 3 2.78158 4.45206 11.5481 -0.00735223 -0.014584 0.0188894
137 3 3.82053 6.00027 11.406 -0.0172207 0.0158127 0.00273071
138 3 2.88767 7.19252 12.001 0.00624212 0.00102873 0.00373426
235 5 5.63804 6.04406 9.67851 -0.00334241 -0.0062033 0.00549678
258 5 3.82459 4.6863 11.4779 0.00421252 0.00247172 -0.00558523
261 5 3.76712 7.11261 11.5456 -0.00221723 0.00568864 -0.00289266
272 5 4.25047 4.53136 12.8902 0.00468152 0.00288048 -0.0030746
135 3 6.03223 8.16672 0.976037 0.022554 -0.0219913 -0.0145055
151 3 4.38285 10.2691 0.189823 -0.0108477 -0.0177503 0.0128708
155 3 5.52268 9.24951 3.4104 -0.00676668 0.0220838 -0.00733088
156 3 4.223 9.0113 2.50952 0.00260031 0.00518293 0.00832007
171 3 5.23776 10.2793 1.53637 0.0235815 0.0134696 -0.0277909
172 3 7.21108 10.0406 0.882583 -0.0128889 0.00601514 0.0131489
183 3 7.2579 7.93142 3.33895 -0.0101319 -0.0146079 0.021337
270 5 4.8781 9.72769 2.89162 0.000926599 0.00287662 0.00703555
278 5 5.32509 10.4299 0.526182 0.0063837 -0.00367273 -0.00183921
7 1 4.49778 7.64469 6.49466 0.00377307 0.00496764 0.004184
20 2 5.28862 8.78124 8.90078 -0.00263879 -0.00650288 -0.00136105
21 2 5.98382 10.0953 5.80211 0.00445657 -0.00173324 0.0053933
217 5 4.88665 9.50086 6.07601 -0.00104883 -0.000557335 -0.00353382
224 5 4.41061 8.07388 8.29146 0.00340389 -0.00342316 -0.00642393
32 2 4.83113 9.5831 9.99341 0.000191372 -0.00158442 0.00500999
44 2 5.54638 10.2734 10.9327 0.00505112 0.000892266 0.000153921
52 2 4.57046 11.0183 11.6865 -0.00164877 0.00740104 0.00608475
56 2 3.33842 10.7145 11.1617 0.00732275 -0.00424438 0.00727775
80 3 2.35051 11.1322 11.3594 0.000753303 -0.000336982 0.00836493
114 3 2.35156 7.89132 8.99847 0.00995063 -0.0135217 -0.0120276
232 5 3.45612 9.82166 10.1191 -0.00187548 0.00101404 0.00509606
17 2 7.08474 13.639 2.38172 0.00593967 0.00374663 0.00147737
29 2 6.47493 12.883 3.47823 0.00656154 -0.00355826 0.000637196
41 2 6.98687 11.8616 4.22786 -0.00213479 -0.00655249 -0.00654618
165 3 5.88675 11.649 0.187168 0.0114631 -0.00843899 -0.00324973
192 5 4.48148 14.9667 0.231906 0.000194604 0.00669206 -0.00265752
221 5 6.43316 14.6443 1.9149 -0.00106097 -0.00544162 -0.00283785
229 5 5.09594 13.053 3.78102 -0.0032234 0.00458693 -0.00661737