LAMMPS (29 Oct 2020)
variable Tini   equal 300
variable nprint equal 5

units            real
newton           on

atom_style       charge
atom_modify      map array
atom_modify      sort 0 0.0

read_data        data.lammps
Reading data file ...
  triclinic box = (0.0000000 0.0000000 0.0000000) to (12.239000 15.074000 13.358706) with tilt (0.0000000 -2.8097638 0.0000000)
  3 by 4 by 3 MPI processor grid
  reading atoms ...
  284 atoms
  read_data CPU = 0.009 seconds
neighbor         1.0 bin
neigh_modify     delay 0 every 1 check no page 100000 one 10000

pair_style       chimesFF
pair_coeff       * * ../../../1-fit/ChIMES_params.txt

velocity         all create ${Tini} 12357
velocity         all create 300 12357
fix              1 all nvt temp ${Tini} ${Tini} 100
fix              1 all nvt temp 300 ${Tini} 100
fix              1 all nvt temp 300 300 100
thermo_style     custom time step temp etotal pe ke press vol density enthalpy pxx pyy pzz lx ly lz
thermo_modify    format float %20.15g flush yes
thermo           1
dump             dump_1 all custom ${nprint} dump_xyz_vxyz id type x y z vx vy vz
dump             dump_1 all custom 5 dump_xyz_vxyz id type x y z vx vy vz
atom_modify      sort 0 0.0

restart          ${nprint} restart.a restart.b
restart          5 restart.a restart.b

timestep         0.1
run              500
Neighbor list info ...
  update every 1 steps, delay 0 steps, check no
  max neighbors/atom: 10000, page size: 100000
  master list distance cutoff = 7
  ghost atom cutoff = 7
  binsize = 3.5, bins = 5 5 4
  1 neighbor lists, perpetual/occasional/extra = 1 0 0
  (1) pair chimesFF, perpetual
      attributes: full, newton on, ghost
      pair build: full/bin/ghost
      stencil: full/ghost/bin/3d
      bin: standard
Per MPI rank memory allocation (min/avg/max) = 3.853 | 3.853 | 3.855 Mbytes
Time Step Temp TotEng PotEng KinEng Press Volume Density Enthalpy Pxx Pyy Pzz Lx Ly Lz 
                   0        0                  300    -37861.4326193754    -38114.5033926204        253.070773245     71624.9838274177     2464.55697854686     1.69877592701403    -35287.0132787771     94276.8562292084     60818.7151220883     59779.3801309564          12.23900032         15.074000359         13.358706116 
                 0.1        1     299.505924118354    -37861.4275011624    -38114.0814871894     252.653986026967     71520.1823359266     2464.55697854686     1.69877592701403    -35290.7750442994     93885.9283277273     60762.6247277641     59911.9939522885          12.23900032         15.074000359         13.358706116 
                 0.2        2     298.800925868024    -37861.4237834747    -38113.4830546605      252.05927118581     71204.4177233344     2464.55697854686     1.69877592701403    -35302.1208653102      93003.472317446     60589.4631560838     60020.3176964735          12.23900032         15.074000359         13.358706116 
                 0.3        3     297.949680770641    -37861.4236890212    -38112.7648760236     251.341187002424     70660.7375293848     2464.55697854686     1.69877592701403    -35321.6622874005     91604.9286862607       60275.93266069     60101.3512412037          12.23900032         15.074000359         13.358706116 
                 0.4        4     296.953996773272    -37861.4271138499    -38111.9283724552     250.501258605351     69898.3279677646     2464.55697854686     1.69877592701403    -35349.0690262127     89709.0707373687     59829.0153965455     60156.8977693794          12.23900032         15.074000359         13.358706116 
                 0.5        5     295.754494235489    -37861.4316991524    -38110.9210943086     249.489395156197     68951.3088661124     2464.55697854686     1.69877592701403    -35383.1123527607     87378.2300120458     59283.0615900351     60192.6349962562          12.23900032         15.074000359         13.358706116 
                 0.6        6     294.268866930467    -37861.4346819079    -38109.6708475613     248.236165653411     67869.7087651878     2464.55697854686     1.69877592701403     -35421.991326404     84705.0299119454     58688.3738038587     60215.7225797592          12.23900032         15.074000359         13.358706116 
                 0.7        7     292.437832401215    -37861.4346879831    -38108.1262492226     246.691561239557     66707.2597893631     2464.55697854686     1.69877592701403    -35463.7732773523     81792.7269461878     58096.3225564515       60232.72986545          12.23900032         15.074000359         13.358706116 
                 0.8        8     290.249911367013    -37861.4320371147    -38106.2779354611     244.845898346476     65510.7049803216     2464.55697854686     1.69877592701403    -35506.7784385332     78737.1186958331     57546.5932760117     60248.4029691201          12.23900032         15.074000359         13.358706116 
                 0.9        9     287.738458164793    -37861.4278737753    -38104.1551874422     242.727313666961     64314.9301451083     2464.55697854686     1.69877592701403    -35549.7540526161     75617.3620321377     57063.1651593927     60264.2632437945          12.23900032         15.074000359         13.358706116 
                   1       10     284.961998996414    -37861.4243132684    -38101.8094913733     240.385178104878     63138.7951024705     2464.55697854686     1.69877592701403    -35592.0243557685     72486.8417343308     56650.0591065482     60279.4844665324          12.23900032         15.074000359         13.358706116 
                 1.1       11     281.971943668622    -37861.4224288518    -38099.2852882439     237.862859392046     61952.0964253485     2464.55697854686     1.69877592701403    -35634.6760241012     69315.2306072004     56254.2261400993     60286.8325287457          12.23900032         15.074000359         13.358706116 
                 1.2       12       278.8045334954    -37861.4202916254    -38096.6112212118     235.190929586308     60759.7153217157     2464.55697854686     1.69877592701403    -35677.5316832822     66129.3354870948     55865.6436140424       60284.16686401          12.23900032         15.074000359         13.358706116 
                 1.3       13     275.496196139457    -37861.4179306229    -38093.8180485665     232.400117943562     59577.0732528365     2464.55697854686     1.69877592701403    -35720.0370682145     62972.8738748492      55487.443208657     60270.9026750032          12.23900032         15.074000359         13.358706116 
                 1.4       14     272.086750228421    -37861.4153806117    -38090.9393948451     229.524014233419     58418.8452090742     2464.55697854686     1.69877592701403    -35761.6647499653     59887.3071345906     55122.4739139056     60246.7545787263          12.23900032         15.074000359         13.358706116 
                 1.5       15     268.618644588713    -37861.4126881906    -38088.0111151709     226.598426980298     57298.1228069566     2464.55697854686     1.69877592701403    -35801.9442226949     56910.1240574143     54773.1783870573     60211.0659763983          12.23900032         15.074000359         13.358706116 
                 1.6       16     265.136055651929    -37861.4099034366    -38085.0705254998      223.66062206321     56226.9914149687     2464.55697854686     1.69877592701403    -35840.4411516512     54075.4310191782     54441.9335345646     60163.6096911633          12.23900032         15.074000359         13.358706116 
                 1.7       17     261.683881899829    -37861.4070776446    -38082.1555521051     220.748474460476     55215.7232228312     2464.55697854686     1.69877592701403    -35876.7863744486     51412.9286049262     54130.7411324368     60103.4999311306          12.23900032         15.074000359         13.358706116 
                 1.8       18     258.306703443061    -37861.4042649772    -38079.3038555595     217.899590582341     54272.9924010823     2464.55697854686     1.69877592701403    -35910.6681692295     48947.8149679851     53841.1358356349     60030.0263996269          12.23900032         15.074000359         13.358706116 
                 1.9       19     255.047743062199    -37861.4015162558     -38076.551948093     215.150431837143     53406.2139590639     2464.55697854686     1.69877592701403    -35941.8200688711     46701.2927043105     53574.6192853023      59942.729887579          12.23900032         15.074000359         13.358706116 
                   2       20     251.947861146621    -37861.3988779365    -38073.9343447291     212.535466792664      52621.483958004     2464.55697854686     1.69877592701403    -35970.0230088838     44690.7080010724      53332.674289393     59841.0695835466          12.23900032         15.074000359         13.358706116 
                 2.1       21     249.044620095927    -37861.3963961245    -38071.4827780585     210.086381933945     51923.4903318759     2464.55697854686     1.69877592701403    -35995.1085367955     42929.6245856539     53116.1277035657      59724.718706408          12.23900032         15.074000359         13.358706116 
                 2.2       22     246.371458810186    -37861.3941000878    -38069.2254853764     207.831385288642     51315.9747756533     2464.55697854686     1.69877592701403    -36016.9421939985     41428.5929915108      52925.631891749     59593.6994436999          12.23900032         15.074000359         13.358706116 
                 2.3       23     243.957031886145     -37861.392015275    -38067.1866642682     205.794648993273     50801.5280348942     2464.55697854686     1.69877592701403    -36035.4308866818     40194.5023743117     52762.0834865725     59447.9982437985          12.23900032         15.074000359         13.358706116 
                 2.4       24     241.824698882782    -37861.3901588697     -38065.386037323     203.995878453349     50381.8348082091     2464.55697854686     1.69877592701403     -36050.514078847     39232.0359320921     52625.8001446954     59287.6683478399          12.23900032         15.074000359         13.358706116 
                 2.5       25     239.992180868887    -37861.3885369007    -38063.8385595181     202.450022617477      50058.242798312     2464.55697854686     1.69877592701403    -36062.1433359962     38544.1345331382     52517.3646493792     59113.2292124185          12.23900032         15.074000359         13.358706116 
                 2.6       26     238.471389426295     -37861.387146493    -38062.5542762227      201.16712972974     49831.7013875698     2464.55697854686     1.69877592701403    -36070.2845315704     38132.2917953932     52437.3812611807     58925.4311061356          12.23900032         15.074000359         13.358706116 
                 2.7       27     237.267252779129    -37861.3865083163    -38061.5378654047     200.151357088437     49679.5317366722     2464.55697854686     1.69877592701403    -36075.7533325669     37933.5170582153      52381.642467199     58723.4356846025          12.23900032         15.074000359         13.358706116 
                 2.8       28     236.374487342857    -37861.3862126804    -38060.7844603046     199.398247624157     49534.1035435753     2464.55697854686     1.69877592701403    -36080.9801676467     37762.3571425591     52336.5093994548     58503.4440887121          12.23900032         15.074000359         13.358706116 
                 2.9       29     235.778876083035    -37861.3861119645    -38060.2819202484     198.895808283903     49393.1770291166     2464.55697854686     1.69877592701403    -36086.0453936511     37609.9384739824     52303.1753270331     58266.4172863345          12.23900032         15.074000359         13.358706116 
                   3       30     235.460878081129    -37861.3861784726    -38060.0137334224     198.627554949794     49264.5818450777     2464.55697854686     1.69877592701403    -36090.6675614318     37488.6609988381     52290.7104333443     58014.3741030507          12.23900032         15.074000359         13.358706116 
                 3.1       31     235.396319739856    -37861.3863612082    -38059.9594567269     198.573095518642     49150.7226678023     2464.55697854686     1.69877592701403    -36094.7601886249     37401.4698050585     52301.3685259265     57749.3296724219          12.23900032         15.074000359         13.358706116 
                 3.2       32     235.557161760688    -37861.3866284838    -38060.0954053844     198.708776900583     49052.7517049701     2464.55697854686     1.69877592701403    -36098.2818297013     37348.9113519381     52336.0431123017     57473.3006506706          12.23900032         15.074000359         13.358706116 
                 3.3       33     235.912107681708    -37861.3869462997    -38060.3951446626     199.008198362892     48971.8657733396     2464.55697854686     1.69877592701403     -36101.189433434     37331.6194419996     52395.5652962477     57188.4125817714          12.23900032         15.074000359         13.358706116 
                 3.4       34     236.427205504163    -37861.3872826669    -38060.8300017106     199.442719043644     48909.0572542631     2464.55697854686     1.69877592701403    -36103.4472986358     37350.0504183034     52480.3097268413     56896.8116176445          12.23900032         15.074000359         13.358706116 
                 3.5       35     237.066468346295    -37861.3876020696    -38061.3695835858     199.981981516194     48865.5399917177     2464.55697854686     1.69877592701403    -36105.0117605535     37404.8151067072     52590.8919343693     56600.9129340765          12.23900032         15.074000359         13.358706116 
                 3.6       36     237.792507486199    -37861.3878721049    -38061.9823179096     200.594445804666     48842.2794694763     2464.55697854686     1.69877592701403    -36105.8480843669     37495.9883414395     52727.8949539363     56302.9551130532          12.23900032         15.074000359         13.358706116 
                 3.7       37     238.567165853996    -37861.3880599551    -38062.6359837336     201.247923778463     48840.4230794591     2464.55697854686     1.69877592701403    -36105.9149965095     37623.5907489734     52891.7669696493     56005.9115197548          12.23900032         15.074000359         13.358706116 
                 3.8       38     239.352151932324    -37861.3881311448     -38063.298245036     201.910113891226     48860.5469782832     2464.55697854686     1.69877592701403    -36105.1917536881     37787.5342890162     53082.1390426912     55711.9676031421          12.23900032         15.074000359         13.358706116 
                 3.9       39     240.109678120179    -37861.3880554378    -38063.9371951227     202.549139684939     48903.1293851268     2464.55697854686     1.69877592701403    -36103.6611370178       37987.34617021     53298.8185954313      55423.223389739          12.23900032         15.074000359         13.358706116 
                   4       40     240.803061271829    -37861.3878053182    -38064.5218617043     203.134056386083     48968.3756442321     2464.55697854686     1.69877592701403    -36101.3157382871     38221.9983147918      53541.254951602     55141.8736663024          12.23900032         15.074000359         13.358706116 
                 4.1       41     241.397289817273     -37861.387350779      -38065.02268009     203.635329311016     49056.5329591156     2464.55697854686     1.69877592701403    -36098.1466422443     38490.6511070133     53808.7508565061     54870.1969138273          12.23900032         15.074000359         13.358706116 
                 4.2       42     241.859586400104    -37861.3866686646    -38065.4119771546     204.025308489968     49167.3942391487     2464.55697854686     1.69877592701403    -36094.1612691996     38791.7853437944     54100.3447214809     54610.0526521708          12.23900032         15.074000359         13.358706116 
                 4.3       43     242.159926843117    -37861.3857346974    -38065.6644011478     204.278666450467     49300.4620812224     2464.55697854686     1.69877592701403     -36089.377473053     39123.4031950579     54414.8208544267     54363.1621941827          12.23900032         15.074000359         13.358706116 
                 4.4       44     242.271518336248    -37861.3845271253    -38065.7573287273     204.372801601981     49455.2195423312     2464.55697854686     1.69877592701403    -36083.8138125533     39483.4738121246     54750.7530329389       54131.43178193          12.23900032         15.074000359         13.358706116 
                 4.5       45     242.171252963618    -37861.3830254477    -38065.6712462651     204.288220817378     49630.7447947418     2464.55697854686     1.69877592701403    -36077.5034004869     39869.6232882757     55106.1831789274     53916.4279170224          12.23900032         15.074000359         13.358706116 
                 4.6       46     241.839995955481    -37861.3813078708    -38065.3900904642     204.008782593405     49826.1583980341     2464.55697854686     1.69877592701403    -36070.4779248182     40279.6660570649     55479.2724825598     53719.5366544777          12.23900032         15.074000359         13.358706116 
                 4.7       47     241.250177392116    -37861.3821548757    -38064.8933846695     203.511229793721     50078.0469293153     2464.55697854686     1.69877592701403    -36061.4251333865     40791.5659885025     55899.6859277297     53542.8888717136          12.23900032         15.074000359         13.358706116 
                 4.8       48     240.359938781167    -37861.3819625902    -38064.1422144717      202.76025188157     50406.9980380707     2464.55697854686     1.69877592701403    -36049.6014397018     41451.1874852646     56381.9410883319     53387.8655406156          12.23900032         15.074000359         13.358706116 
                 4.9       49     239.137379304202    -37861.3795805604    -38063.1085188681     201.728938307658     50797.8714101242     2464.55697854686     1.69877592701403    -36035.5498821614     42229.8523586305     56909.7811077097     53253.9807640323          12.23900032         15.074000359         13.358706116 
                   5       50     237.587725367046     -37861.374169373    -38061.7958672802     200.421697907197     51223.3559323602     2464.55697854686     1.69877592701403    -36020.2512656616     43071.9719831972     57457.8383902953     53140.2574235882          12.23900032         15.074000359         13.358706116 
                 5.1       51     235.765387157861    -37861.3662236097    -38060.2506530512     198.884429441489     51645.5091750815     2464.55697854686     1.69877592701403     -36005.069850884     43897.4440524113      57993.606486716     53045.4769861173          12.23900032         15.074000359         13.358706116 
                 5.2       52     233.763492880926    -37861.3579188114    -38058.5536118109     197.195692999427     52023.0943137824     2464.55697854686     1.69877592701403    -35991.4899900189     44617.0663972205     58483.8234034503     52968.3931406765          12.23900032         15.074000359         13.358706116 
                 5.3       53     231.676751190407    -37861.3519903223    -38056.7873722111      195.43538188882     52322.9003135335     2464.55697854686     1.69877592701403      -35980.70812382     45156.9184034011     58903.3800999859     52908.4024372136          12.23900032         15.074000359         13.358706116 
                 5.4       54     229.556670211246    -37861.3497155745    -38054.9966623542     193.646946779692     52530.4043368294     2464.55697854686     1.69877592701403    -35973.2475245844      45483.285944787     59243.1563681689     52864.7706975321          12.23900032         15.074000359         13.358706116 
                 5.5       55     227.390898674086     -37861.349876763    -38053.1698452841     191.819968521088     52654.7729945071     2464.55697854686     1.69877592701403    -35968.7774986876     45613.4674340374     59512.8033476405     52838.0482018435          12.23900032         15.074000359         13.358706116 
                 5.6       56     225.122814580183    -37861.3497692635    -38051.2564517999     189.906682536325      52724.422243094     2464.55697854686     1.69877592701403    -35966.2739857695      45608.564227322     59735.6683437944     52829.0341581656          12.23900032         15.074000359         13.358706116 
                 5.7       57     222.695723096118    -37861.3472210859    -38049.2064838936      187.85926280763     52776.1900268477     2464.55697854686     1.69877592701403    -35964.4107462997     45550.8845789618     59939.5461664326     52838.1393351487          12.23900032         15.074000359         13.358706116 
                 5.8       58     220.089875486845    -37861.3417371788    -38047.0027870883     185.661049909505     52843.7766856344     2464.55697854686     1.69877592701403    -35961.9759927124     45518.0188998018      60148.432860388     52864.8782967134          12.23900032         15.074000359         13.358706116 
                 5.9       59     217.332932263913    -37861.3341700009    -38044.6695473997     183.335377398773     52950.1046550728     2464.55697854686     1.69877592701403    -35958.1466755482     45565.6080675295     60376.4321832378     52908.2737144511          12.23900032         15.074000359         13.358706116 
                   6       60     214.487681335793    -37861.3257049654    -38042.2609161893     180.935211223921     53106.2300075413     2464.55697854686     1.69877592701403    -35952.5265914173     45723.6984175184     60628.3589918367     52966.6326132689          12.23900032         15.074000359         13.358706116 
                 6.1       61     211.624506433022    -37861.3199806476    -38039.8399055829     178.519924935321      53288.853762397     2464.55697854686     1.69877592701403    -35945.9568149848     45944.0846954115     60884.4628552175     53038.0137365619          12.23900032         15.074000359         13.358706116 
                 6.2       62     208.796279019819    -37861.3142696736    -38037.4483889476     176.134119274081     53457.5408698272     2464.55697854686     1.69877592701403    -35939.8879773101     46137.9933653473     61114.4100400456     53120.2192040887          12.23900032         15.074000359         13.358706116 
                 6.3       63     206.043457053952    -37861.3085029569     -38035.120426286     173.811923329055     53610.1602758481     2464.55697854686     1.69877592701403     -35934.396605856      46303.150508596     61315.7472619856     53211.5830569626          12.23900032         15.074000359         13.358706116 
                 6.4       64     203.406237377584    -37861.3027222232    -38032.8899681432     171.587245920004     53745.0506458529     2464.55697854686     1.69877592701403    -35929.5424557567     46438.2965627983     61486.6300702524     53310.2253045081          12.23900032         15.074000359         13.358706116 
                 6.5       65     200.923877154338    -37861.2969688389    -38030.7901720217     169.493203182772     53860.6842316401     2464.55697854686     1.69877592701403    -35925.3804802866     46542.3081431903     61625.4132575428     53414.3312941873          12.23900032         15.074000359         13.358706116 
                 6.6       66     198.633872994598    -37861.2912831756    -38028.8527092802      167.56142610464     53955.8008632421     2464.55697854686     1.69877592701403    -35921.9560141514     46614.5345133529     61730.7226833399     53522.1453930336          12.23900032         15.074000359         13.358706116 
                 6.7       67     196.571153563822    -37861.2857005292    -38027.1070799627     165.821379433527     54029.5969263763     2464.55697854686     1.69877592701403    -35919.2979769837     46654.8807692893     61801.8621293114     53632.0478805283          12.23900032         15.074000359         13.358706116 
                 6.8       68      194.76731053692    -37861.2802566922     -38025.579969627     164.299712934758     54081.2492689771     2464.55697854686     1.69877592701403    -35917.4359911599     46663.3837520374      61838.045963428     53742.3180914657          12.23900032         15.074000359         13.358706116 
                 6.9       69     193.249884355569    -37861.2749781452    -38024.2946370231     163.019658877902     54109.9413454035     2464.55697854686     1.69877592701403    -35916.3994322896     46639.8532228962     61838.6180529148     53851.3527603995          12.23900032         15.074000359         13.358706116 
                   7       70     192.041747235517    -37861.2698860334    -38023.2703975941     162.000511560711     54115.3144405319     2464.55697854686     1.69877592701403    -35916.2012148286      46584.591099039     61803.6168865456     53957.7353360111          12.23900032         15.074000359         13.358706116 
                 7.1       71      191.16059302862    -37861.2649953829    -38022.5221923553     161.257196972419     54097.2802224104     2464.55697854686     1.69877592701403    -35916.8445287213     46498.3204614828     61733.2341642876     54060.2860414608          12.23900032         15.074000359         13.358706116 
                 7.2       72     190.618536879039    -37861.2603124688    -38022.0602475449      160.79993507603     54055.9345088044     2464.55697854686     1.69877592701403    -35918.3259362616     46381.6879731177     61628.1460349324     54157.9695183631          12.23900032         15.074000359         13.358706116 
                 7.3       73     190.421854142534    -37861.2558361422    -38021.8898557108     160.634019568659     53991.5964720413     2464.55697854686     1.69877592701403    -35920.6339642781     46235.7861861388     61489.1187711782     54249.8844588067          12.23900032         15.074000359         13.358706116 
                 7.4       74     190.570849636055    -37861.2515592439    -38022.0112668284      160.75970758451     53905.1705658418     2464.55697854686     1.69877592701403    -35923.7360967995     46062.2281175656     61317.7107903485     54335.5727896112          12.23900032         15.074000359         13.358706116 
                 7.5       75     191.059863243166    -37861.2474639163    -38022.4196883398      161.17222442344     53797.4141015053     2464.55697854686     1.69877592701403    -35927.6050959013     45862.4609076699     61115.2729214293     54414.5084754167          12.23900032         15.074000359         13.358706116 
                 7.6       76     191.877418344345    -37861.2435280624    -38023.1054168246     161.861888762193      53669.397257959     2464.55697854686     1.69877592701403     -35932.202474007     45637.9978151722     60883.7519934567      54486.441965248          12.23900032         15.074000359         13.358706116 
                 7.7       77     193.006494770277    -37861.2397220644    -38024.0540649738     162.814342909403     53522.4350864461     2464.55697854686     1.69877592701403    -35937.4809345655     45390.8659940584     60625.1453681763     54551.2938971034          12.23900032         15.074000359         13.358706116 
                 7.8       78     194.424915987281    -37861.2360130579    -38025.2468924813     164.010879423318     53358.2087098365     2464.55697854686     1.69877592701403    -35943.3800200532     45123.6935476001     60341.7256099462     54609.2069719631          12.23900032         15.074000359         13.358706116 
                 7.9       79     196.105824474702    -37861.2323621136    -38026.6612042391     165.428842125537     53179.9913021779     2464.55697854686     1.69877592701403    -35949.7820437295     44842.7877359662     60036.4118278345     54660.7743427329          12.23900032         15.074000359         13.358706116 
                   8       80     198.018268200537     -37861.228725419    -38028.2708462528     167.042120833819      52989.633470302     2464.55697854686     1.69877592701403    -35956.6204453548     44550.8864498247     59711.9122343355     54706.1017267459          12.23900032         15.074000359         13.358706116 
                 8.1       81     200.127874351021    -37861.2250609156    -38030.0467806152     168.821719699637     52788.9944757757     2464.55697854686     1.69877592701403    -35963.8283553662     44250.0425323277     59371.1271449673      54745.813750032          12.23900032         15.074000359         13.358706116 
                 8.2       82     202.397557011664    -37861.2213226396    -38031.9576768257     170.736354186136     52579.9634459696     2464.55697854686     1.69877592701403    -35971.3378268274     43942.4631004946     59016.9035276092      54780.523709805          12.23900032         15.074000359         13.358706116 
                 8.3       83     204.788257959668    -37861.2174673068    -38033.9705432847     172.753075977833     52364.3254777428     2464.55697854686     1.69877592701403    -35979.0846546544     43630.3595658181     58651.6902310872     54810.9266363229          12.23900032         15.074000359         13.358706116 
                 8.4       84     207.259698662426    -37861.2134520108    -38036.0513593542     174.837907343419     52144.0801735103     2464.55697854686     1.69877592701403      -35986.99692416     43316.0313539855     58278.2759136526     54837.9332528927          12.23900032         15.074000359         13.358706116 
                 8.5       85     209.771127234619    -37861.2092372284    -38038.1657084742     176.956471245801     51921.0746828021     2464.55697854686     1.69877592701403    -35995.0082036599     43001.4927923309     57899.6200542951     54862.1112017804          12.23900032         15.074000359         13.358706116 
                 8.6       86     212.282050538747    -37861.2047843162    -38040.2793932358     179.074608919583      51697.188703045     2464.55697854686     1.69877592701403    -36003.0508924792     42688.7840803318     57518.5978244179     54884.1842043851          12.23900032         15.074000359         13.358706116 
                 8.7       87     214.752940768202    -37861.2000611148    -38042.3590370377     181.158975922822     51474.3917603715     2464.55697854686     1.69877592701403    -36011.0541677107     42379.8729298143      57138.169030011     54905.1333212893          12.23900032         15.074000359         13.358706116 
                 8.8       88     217.145897912435    -37861.1950371283    -38044.3726381005     183.177600972266     51254.4201892872     2464.55697854686     1.69877592701403    -36018.9555897255     42076.5354318671     56760.9319646404     54925.7931713541          12.23900032         15.074000359         13.358706116 
                 8.9       89     219.425266074107    -37861.1896861134    -38046.2900919629     185.100405849547     51038.9023928696     2464.55697854686     1.69877592701403    -36026.6966025308     41780.4101613249     56389.5465286405     54946.7504886435          12.23900032         15.074000359         13.358706116 
                   9       90     221.558200543767     -37861.183988077    -38048.0836718449      186.89968376794     50829.4574642995     2464.55697854686     1.69877592701403    -36034.2189910096     41493.2660168024     56026.5299071185     54968.5764689777          12.23900032         15.074000359         13.358706116 
                 9.1       91     223.515070598756    -37861.1779616403    -38049.7284008014     188.550439161127     50624.7175487119     2464.55697854686     1.69877592701403    -36041.5719386392     41211.7553683764     55670.7811218276     54991.6161559316          12.23900032         15.074000359         13.358706116 
                 9.2       92     225.269704198608    -37861.1715625418    -38051.2021566425     190.030594100713     50420.3100494265     2464.55697854686     1.69877592701403     -36048.912565556     40927.9335840916     55317.2950929903     55015.7014711978          12.23900032         15.074000359         13.358706116 
                 9.3       93     226.799858673004    -37861.1647780069     -38052.486163361     191.321385354113     50217.0709506082     2464.55697854686     1.69877592701403    -36056.2108111768     40642.5649750251     54967.5442287411     55041.1036480583          12.23900032         15.074000359         13.358706116 
                 9.4       94     228.087717278447    -37861.1576047044    -38053.5653879689     192.407783264478     50015.8383193877     2464.55697854686     1.69877592701403    -36063.4365494938     40356.2860412739     54623.4325710493     55067.7963458399          12.23900032         15.074000359         13.358706116 
                 9.5       95     229.120122076582    -37861.1500442718    -38054.4287324715     193.278688199698      49817.506629185     2464.55697854686     1.69877592701403    -36070.5576320546      40069.821086866     54286.7764153253     55095.9223853636          12.23900032         15.074000359         13.358706116 
                 9.6       96      229.88872102434    -37861.1421030925    -38055.0691577256     193.927054633113     49623.1208697731     2464.55697854686     1.69877592701403    -36077.5365051379     39784.2213968683     53959.4210313717     55125.7201810794          12.23900032         15.074000359         13.358706116 
                 9.7       97     230.387644273442    -37861.1351668111    -38055.4830977523     194.347930941247     49440.2511361483     2464.55697854686     1.69877592701403    -36084.1024621947     39518.5168264072     53645.5111997484     55156.7253822893          12.23900032         15.074000359         13.358706116 
                 9.8       98     230.598106533505    -37861.1292431348    -38055.6547135657      194.52547043089     49315.8033501895     2464.55697854686     1.69877592701403    -36088.5695697144     39394.9631245466      53363.334443596     55189.1124824258          12.23900032         15.074000359         13.358706116 
                 9.9       99     230.492954148183    -37861.1218693804    -38055.5586364931     194.436767112684     49251.7467478758     2464.55697854686     1.69877592701403    -36090.8645846947     39420.1703366068     53112.4677906805     55222.6021163402          12.23900032         15.074000359         13.358706116 
                  10      100     230.066850705625     -37861.111977261    -38055.1892966147     194.077319353715     49230.9217148938     2464.55697854686     1.69877592701403    -36091.6032074763      39550.769566666     52885.5137852718     55256.4817927436          12.23900032         15.074000359         13.358706116 
                10.1      101     229.356030441597    -37861.0991925488    -38054.5768857897     193.477693240862     49224.1223533186     2464.55697854686     1.69877592701403     -36091.834812459     39711.2823781413     52671.5156920926      55289.568989722          12.23900032         15.074000359         13.358706116 
                10.2      102      228.44250827778    -37861.0846841243    -38053.7917581639     192.707074039617     49193.6957327207     2464.55697854686     1.69877592701403    -36092.9139291406     39803.6170966539     52457.6084963632     55319.8616051451          12.23900032         15.074000359         13.358706116 
                10.3      103     227.432896583154    -37861.0709851853    -38052.9263818508     191.855396665496      49103.296692471     2464.55697854686     1.69877592701403    -36096.1494461197     39731.5655719445     52233.1451479272     55345.1793575413          12.23900032         15.074000359         13.358706116 
                10.4      104     226.416148014401    -37861.0604229157    -38052.0581217596     190.997698843862     48928.6624416642     2464.55697854686     1.69877592701403    -36102.4157689366      39430.153488655     51992.6769336774     55363.1569026603          12.23900032         15.074000359         13.358706116 
                10.5      105     225.425711465619    -37861.0533329472    -38051.2155299803     190.162197033028     48666.5566705838     2464.55697854686     1.69877592701403    -36111.8295560183     38889.3186547663     51738.5556480625     55371.7957089226          12.23900032         15.074000359         13.358706116 
                10.6      106     224.434036736098    -37861.0478036675    -38050.3734543986     189.325650731004      48336.242195583     2464.55697854686     1.69877592701403    -36123.6965316591     38158.3870400137     51480.1751131087     55370.1644336265          12.23900032         15.074000359         13.358706116 
                10.7      107     223.383407650742    -37861.0412228109    -38049.4805951584     188.439372347587     47972.1497682062     2464.55697854686     1.69877592701403    -36136.7765378662     37327.4659960821     51230.6407645857     55358.3425439506          12.23900032         15.074000359         13.358706116 
                10.8      108     222.229133117646    -37861.0320598399     -38048.497721692     187.465661852162     47612.1812258551     2464.55697854686     1.69877592701403     -36149.705737013     36497.8946353567     51002.4262360682     55336.2228061404          12.23900032         15.074000359         13.358706116 
                10.9      109     220.966462996014    -37861.0204166057    -38047.4209287777     186.400512172046     47288.4021871711     2464.55697854686     1.69877592701403    -36161.3316952793      35755.714533861      50804.980944619     55304.5110830333          12.23900032         15.074000359         13.358706116 
                  11      110     219.631138426796    -37861.0073384055      -38046.28141184     185.274073434497     47021.1394449024     2464.55697854686     1.69877592701403    -36170.9248513281     35156.9409572342      50642.850616314     55263.6267611591          12.23900032         15.074000359         13.358706116 
                11.1      111     218.282574634877    -37860.9944237209    -38045.1308902167     184.136466495859     46816.7301712023     2464.55697854686     1.69877592701403    -36178.2590264365     34721.6974763208      50515.527047479     55212.9659898071          12.23900032         15.074000359         13.358706116 
                11.2      112     216.972179519039      -37860.98393661    -38044.0149940885     183.031057478454     46632.4740836892     2464.55697854686     1.69877592701403    -36184.8712624311     34336.8705881084     50409.9601180619     55150.5915448972          12.23900032         15.074000359         13.358706116 
                11.3      113     215.730763515143    -37860.9734910966    -38042.9573282149     181.983837118372     46452.1623385291     2464.55697854686     1.69877592701403    -36191.3417683856      33959.466241053     50321.6239901326     55075.3967844016          12.23900032         15.074000359         13.358706116 
                11.4      114      214.58195030978    -37860.9631050675    -38041.9778386985     181.014733631054     46275.7934289768     2464.55697854686     1.69877592701403     -36197.670616344     33590.5206211756     50250.1184610163     54986.7412047386          12.23900032         15.074000359         13.358706116 
                11.5      115     213.547265037968    -37860.9527939567    -38041.0946989151     180.141904958379      46103.446304223     2464.55697854686     1.69877592701403    -36203.8549840667     33231.0696530533     50195.0948423617     54884.1744172539          12.23900032         15.074000359         13.358706116 
                11.6      116     212.645743707422    -37860.9425717953    -38040.3239810863     179.381409290985     45935.3317125877     2464.55697854686     1.69877592701403    -36209.8873106503     32882.1438223847     50156.3890857288     54767.4622296497          12.23900032         15.074000359         13.358706116 
                11.7      117     211.893593584409    -37860.9324462388    -38039.6793648191     178.746918580227     45771.8162163382     2464.55697854686     1.69877592701403    -36215.7544283899     32544.9210860022     50133.9027033942     54636.6248596184          12.23900032         15.074000359         13.358706116 
                11.8      118     211.303908523173    -37860.9224212431    -38039.1718996419     178.249478398834     45613.0384808213     2464.55697854686     1.69877592701403    -36221.4513571878     32220.4352814713     50127.1230072746     54491.5571537179          12.23900032         15.074000359         13.358706116 
                11.9      119      210.88644703331      -37860.91249751    -38038.8098182354     177.897320725368     45459.6978827058     2464.55697854686     1.69877592701403    -36226.9529600254     31909.8556658478     50135.9833627515     54333.2546195182          12.23900032         15.074000359         13.358706116 
                  12      120     210.647496682319     -37860.902669481    -38038.5984190394     177.695749558394     45312.5049868978     2464.55697854686     1.69877592701403    -36232.2336914844     31614.5219832919     50160.8118180198     54162.1811593815          12.23900032         15.074000359         13.358706116 
                12.1      121     210.589794992955    -37860.8929321962    -38038.5400063841      177.64707418791     45171.8006976583     2464.55697854686     1.69877592701403     -36237.281293471     31335.5364218049     50201.0601859178     53978.8054852523          12.23900032         15.074000359         13.358706116 
                12.2      122     210.712505507043    -37860.8832719914     -38038.633860995     177.750589003529     45038.3541983914     2464.55697854686     1.69877592701403    -36242.0681055345     31074.2506057106     50256.7026401626      53784.109349301          12.23900032         15.074000359         13.358706116 
                12.3      123     211.011277612012    -37860.8736753867     -38038.876299349      178.00262396229     44913.2028319748     2464.55697854686     1.69877592701403    -36246.5568289431     30832.1640176485     50327.9058227344     53579.5386555413          12.23900032         15.074000359         13.358706116 
                12.4      124     211.478362899441    -37860.8641244021    -38039.2607671473     178.396642745161     44797.1497088426     2464.55697854686     1.69877592701403      -36250.71857949     30610.4936185891      50414.530252697     53366.4252552416          12.23900032         15.074000359         13.358706116 
                12.5      125     212.102802897101    -37860.8545964257    -38039.7779975477     178.923401122004     44690.9835349442     2464.55697854686     1.69877592701403    -36254.5249860771     30410.4199162671     50516.4734496302     53146.0572389354          12.23900032         15.074000359         13.358706116 
                12.6      126     212.870679297579    -37860.8450717111    -38040.4162297479     179.571158036755     44595.8292047314     2464.55697854686     1.69877592701403    -36257.9355968369     30233.3386203726     50634.1124697511     52920.0365240704          12.23900032         15.074000359         13.358706116 
                12.7      127     213.765388580414    -37860.8355239438     -38041.161431214     180.325907270211     44512.7880146573     2464.55697854686     1.69877592701403    -36260.9108015173     30080.4893063269     50767.5671654058     52690.3075722391          12.23900032         15.074000359         13.358706116 
                12.8      128     214.767970803121     -37860.825929746     -38041.997584544     181.171654798018     44442.8765571433     2464.55697854686     1.69877592701403    -36263.4140373229     29953.1681671508     50916.6156114817     52458.8458927974          12.23900032         15.074000359         13.358706116 
                12.9      129     215.857479598014     -37860.816263782    -38042.9069946907     182.090730908621     44387.0115137012     2464.55697854686     1.69877592701403    -36265.4123306018     29852.5820406464     51081.1716483375     52227.2808521196          12.23900032         15.074000359         13.358706116 
                  13      130      217.01136844379    -37860.8064984946    -38043.8706145447     183.064116050085     44346.4629614319     2464.55697854686     1.69877592701403    -36266.8600033705     29780.2575780936      51261.261668588     51997.8696376142          12.23900032         15.074000359         13.358706116 
                13.1      131     218.205907874203    -37860.7966128031    -38044.8684055776     184.071792774506     44322.1481674676     2464.55697854686     1.69877592701403     -36267.724065183     29736.8754453712     51456.9964295462     51772.5726274856          12.23900032         15.074000359         13.358706116 
                13.2      132     219.416605543295    -37860.7865810351    -38045.8796811272     185.093100092116     44314.8783556395     2464.55697854686     1.69877592701403    -36267.9753325201     29723.3102343329     51668.3188244287     51553.0060081567          12.23900032         15.074000359         13.358706116 
                13.3      133     220.618643771821    -37860.7763781159    -38046.8834806879     186.107102571993     44325.7695434106     2464.55697854686     1.69877592701403    -36267.5736672516     29740.7439422389     51895.2192831178     51341.3454048752          12.23900032         15.074000359         13.358706116 
                13.4      134     221.787309491754    -37860.7659889471    -38047.8589419772     187.092953030021     44355.5552520763     2464.55697854686     1.69877592701403    -36266.4926892971     29789.8218626872     52137.2585862293     51139.5853073125          12.23900032         15.074000359         13.358706116 
                13.5      135     222.898404148337    -37860.7553920096    -38048.7856303192     188.030238309654      44404.748892296     2464.55697854686     1.69877592701403    -36264.7139235998     29871.1611966152     52394.0759178127       50949.00956246          12.23900032         15.074000359         13.358706116 
                13.6      136     223.928658468777    -37860.7445698751    -38049.6438990431     188.899329168029     44473.9656934645     2464.55697854686     1.69877592701403    -36262.2152395197     29985.1183812488     52665.3625790421     50771.4161201026          12.23900032         15.074000359         13.358706116 
                13.7      137     224.856128374157    -37860.7335116371    -38050.4152258922     189.681714255083     44563.6619748852     2464.55697854686     1.69877592701403    -36258.9802246491      30131.975047867     52950.9516626399     50608.0592141485          12.23900032         15.074000359         13.358706116 
                13.8      138     225.660581286397    -37860.7221983965    -38051.0825243867     190.360325990216     44674.2146243334     2464.55697854686     1.69877592701403    -36254.9953135983     30312.1017990928     53250.1935285044     50460.3485454032          12.23900032         15.074000359         13.358706116 
                13.9      139     226.323869655782    -37860.7106236718    -38051.6304793305     190.919855658631     44805.7585189221     2464.55697854686     1.69877592701403    -36250.2556519929     30525.3708125383     53562.3611514733     50329.5435927548          12.23900032         15.074000359         13.358706116 
                  14      140     226.830268240302    -37860.6987800346    -38052.0458179644     191.347037929813     44958.1052394519     2464.55697854686     1.69877592701403    -36244.7680047624     30771.1632511565     53886.3198863564     50216.8325808426          12.23900032         15.074000359         13.358706116 
                14.1      141     227.166760755164    -37860.6866630065    -38052.3175556728     191.630892666238      45131.054008686     2464.55697854686     1.69877592701403    -36238.5395839719     31048.7951834046     54221.1929869797     50123.1738556738          12.23900032         15.074000359         13.358706116 
                14.2      142     227.323309995626    -37860.6742687035    -38052.4372214942     191.762952790687      45323.970633239     2464.55697854686     1.69877592701403    -36231.5931805728     31357.2943411961     54565.7270742946     50048.8904842263          12.23900032         15.074000359         13.358706116 
                14.3      143     227.293111461143    -37860.6615960188    -38052.3990742546     191.737478235778     45536.3176822928     2464.55697854686     1.69877592701403    -36223.9481103531     31695.6316444578     54918.7541168568     49994.5672855638          12.23900032         15.074000359         13.358706116 
                14.4      144     227.072795144973    -37860.6486477692    -38052.2002739367     191.551626167473     45767.1226837304     2464.55697854686     1.69877592701403    -36215.6393297297     32062.2991679725     55278.9346795609     49960.1342036579          12.23900032         15.074000359         13.358706116 
                14.5      145     226.662570465538    -37860.6354309227    -38051.8410041674      191.20557324471     46015.2548411708     2464.55697854686     1.69877592701403    -36206.7074899251     32455.6562476034      55644.441506607      49945.666769302          12.23900032         15.074000359         13.358706116 
                14.6      146     226.066314323875    -37860.6219520286    -38051.3245419305     190.702589901968      46279.419806739     2464.55697854686     1.69877592701403    -36197.1991202802      32873.841822916      56013.412758528     49951.0048387731          12.23900032         15.074000359         13.358706116 
                14.7      147     225.291605466799     -37860.608222508     -38050.657291845     190.049069336967     46558.3065098776     2464.55697854686     1.69877592701403    -36187.1613560719     33314.4709593168     56384.2968782748     49976.1516920413          12.23900032         15.074000359         13.358706116 
                14.8      148     224.345036046853    -37860.5964506959    -38049.8470231828     189.250572486849     46864.2627264981     2464.55697854686     1.69877592701403    -36176.1525890864     33813.9646972636     56755.9107840107     50022.9126982199          12.23900032         15.074000359         13.358706116 
                14.9      149     223.217570211326    -37860.5848970613    -38048.8843740455     188.299476984168     47239.9134016633     2464.55697854686     1.69877592701403    -36162.6390098767     34493.0192488601      57128.479964657     50098.2409914728          12.23900032         15.074000359         13.358706116 
                  15      150     221.894730793517    -37860.5718035458    -38047.7553738822     187.183570336355     47678.1762519658     2464.55697854686     1.69877592701403    -36146.8734191488     35334.3456456839      57498.584349661     50201.5987605526          12.23900032         15.074000359         13.358706116 
                15.1      151     220.387773496206    -37860.5561624308    -38046.4685099389     185.912347508096     48157.4152185107     2464.55697854686     1.69877592701403    -36129.6324748181     36280.4905036274      57862.236304036     50329.5188478688          12.23900032         15.074000359         13.358706116 
                15.2      152     218.750479946829    -37860.5378650596    -38045.0690420858     184.531177026196     48644.2545158549     2464.55697854686     1.69877592701403     -36112.115695271     37242.1570221819     58214.9527811934     50475.6537441894          12.23900032         15.074000359         13.358706116 
                15.3      153      217.07883221154    -37860.5184284308    -38043.6394548405     183.121026409654     49098.0518686181     2464.55697854686     1.69877592701403    -36095.7854042555     38109.8551745805     58552.7126212909      50631.587809983          12.23900032         15.074000359         13.358706116 
                15.4      154     215.484291007178    -37860.5005090254    -38042.2764295166     181.775920491124     49480.5525081678     2464.55697854686     1.69877592701403    -36082.0192507616      38781.276589619     58872.1834562269     50788.1974786575          12.23900032         15.074000359         13.358706116 
                15.5      155     214.049711003613    -37860.4861428908    -38041.0518958126     180.565752921844     49769.4913942717     2464.55697854686     1.69877592701403    -36071.6195439694     39198.6405477776     59171.5623410919     50938.2712939455          12.23900032         15.074000359         13.358706116 
                15.6      156     212.796148029243    -37860.4751540791    -38039.9834398302      179.50828575106     49964.7999849277     2464.55697854686     1.69877592701403    -36064.5885715389     39365.4752338058     59450.3366751833      51078.588045794          12.23900032         15.074000359         13.358706116 
                15.7      157     211.685446096888    -37860.4653133143    -38039.0366450758     178.571331761508     50087.5580132455     2464.55697854686     1.69877592701403    -36060.1664345971     39343.6822209512     59707.9360119822     51211.0558068031          12.23900032         15.074000359         13.358706116 
                15.8      158     210.656158837252    -37860.4540953533    -38038.1571520392     177.703056685883      50172.090392339     2464.55697854686     1.69877592701403    -36057.1168663285     39230.7459188166     59944.8943509573      51340.630907243          12.23900032         15.074000359         13.358706116 
                15.9      159     209.665425380174    -37860.4403019507     -38037.307606363     176.867304412342     50254.3805900378     2464.55697854686     1.69877592701403    -36054.1453134239     39128.1884675821      60160.933213398     51474.0200891333          12.23900032         15.074000359         13.358706116 
                  16      160      208.71055633814    -37860.4242983291    -38036.4861045854      176.06180625629     50362.5489754594     2464.55697854686     1.69877592701403    -36050.2414096787     39115.1513332512     60355.3785462843     51617.1170468426          12.23900032         15.074000359         13.358706116 
                16.1      161     207.824991596501    -37860.4071915673    -38035.7219626439      175.31477107654     50512.9739710464     2464.55697854686     1.69877592701403    -36044.8175719517     39237.9737695722     60527.0090134758     51773.9391300912          12.23900032         15.074000359         13.358706116 
                16.2      162     207.058365149717    -37860.3913742278     -38035.059442812     174.668068584281     50704.0011288596     2464.55697854686     1.69877592701403    -36037.9356586862     39493.2638873725     60674.2189598418     51944.5205393645          12.23900032         15.074000359         13.358706116 
                16.3      163     206.445254944878    -37860.3771697432    -38034.5280374154     174.150867672205     50888.0781813178     2464.55697854686     1.69877592701403    -36031.3051661596     39751.3407420154     60795.2791346257     52117.6146673122          12.23900032         15.074000359         13.358706116 
                16.4      164      205.99919250233    -37860.3630560081    -38034.1376391228     173.774583114701     51056.2396247684     2464.55697854686     1.69877592701403    -36025.2468196829     39988.7066084828     60889.9448225734     52290.0674432491          12.23900032         15.074000359         13.358706116 
                16.5      165     205.727849593951    -37860.3490284932    -38033.8947150758     173.545686582574      51207.601624543     2464.55697854686     1.69877592701403    -36019.7923824279     40204.1931495326     60957.6036364641     52461.0080876324          12.23900032         15.074000359         13.358706116 
                16.6      166     205.635628815405    -37860.3350784936    -38033.8029704637     173.467891970121      51341.611667524     2464.55697854686     1.69877592701403    -36014.9617046882     40396.9419959588     60998.2751691084     52629.6178375047          12.23900032         15.074000359         13.358706116 
                16.7      167     205.723603061341     -37860.321193005    -38033.8632973433      173.54210433827     51458.0932936408     2464.55697854686     1.69877592701403    -36010.7611159702     40566.3235962276     61012.4538646591     52795.5024200356          12.23900032         15.074000359         13.358706116 
                16.8      168     205.989557642527    -37860.3073470644    -38034.0738025077     173.766455443299     51557.0090793293     2464.55697854686     1.69877592701403    -36007.1919364272      40711.706535531     61000.7516853764     52958.5690170805          12.23900032         15.074000359         13.358706116 
                16.9      169     206.428129960785    -37860.2935237523    -38034.4299453147     174.136421562318     51638.0058082568     2464.55697854686     1.69877592701403    -36004.2668448072     40832.4186313438      60963.694798214     53117.9039952127          12.23900032         15.074000359         13.358706116 
                  17      170      207.03099315855    -37860.2796966148    -38034.9246750292     174.644978414382     51700.9710905737     2464.55697854686     1.69877592701403    -36001.9898542884     40927.8499680128      60901.995634915     53273.0676687932          12.23900032         15.074000359         13.358706116 
                17.1      171     207.787117576343    -37860.2658334812    -38035.5486551992     175.282821717983     51746.3236118341     2464.55697854686     1.69877592701403    -36000.3458838704     40997.9659392836     60816.8857460371     53424.1191501816          12.23900032         15.074000359         13.358706116 
                17.2      172     208.683117043226    -37860.2519060604    -38036.2905653714      176.03865931102     51774.4772900914     2464.55697854686     1.69877592701403    -35999.3200277909     41042.6962556075      60709.766608912     53570.9690057547          12.23900032         15.074000359         13.358706116 
                17.3      173     209.703628091207    -37860.2378796642    -38037.1374107086     176.899531044412      51785.892437077     2464.55697854686     1.69877592701403    -35998.8957063607     41062.1218199544      60582.053854056     53713.5016372206          12.23900032         15.074000359         13.358706116 
                17.4      174     210.831729535219      -37860.22372559    -38038.0748883169     177.851162726862     51781.3305839195     2464.55697854686     1.69877592701403    -35999.0455191368      41056.453760344     60435.7318402387     53851.8061511758          12.23900032         15.074000359         13.358706116 
                17.5      175     212.049363606976    -37860.2094144784    -38039.0877358588     178.878321380425     51761.2424053491     2464.55697854686     1.69877592701403    -35999.7532381419     41026.0644171699     60271.8837628583     53985.7790360189          12.23900032         15.074000359         13.358706116 
                17.6      176     213.337759161473    -37860.1949158709    -38040.1600881154     179.965172244498     51726.8588401225     2464.55697854686     1.69877592701403    -36000.9745892419     40971.9281498905     60092.9302478235     54115.7181226535          12.23900032         15.074000359         13.358706116 
                17.7      177      214.67786411454    -37860.1802069102    -38041.2758504771     181.095643566839     51678.9266800527     2464.55697854686     1.69877592701403     -36002.682707615     40894.4831613646     59900.4898288992     54241.8070498944          12.23900032         15.074000359         13.358706116 
                17.8      178     216.050738183477    -37860.1652638183    -38042.4190217258     182.253757907485     51618.2329745306     2464.55697854686     1.69877592701403    -36004.8492805389      40794.557324625     59695.9899533465     54364.1516456202          12.23900032         15.074000359         13.358706116 
                17.9      179       217.4379212699    -37860.1500691286    -38043.5740120238     183.423942895197     51545.8204194384     2464.55697854686     1.69877592701403    -36007.4368128917     40673.1543467653     59481.2636150978     54483.0432964521          12.23900032         15.074000359         13.358706116 
                  18      180     218.821770758925    -37860.1346042906    -38044.7259200532     184.591315762671     51462.6219971549     2464.55697854686     1.69877592701403    -36010.4117519043     40531.2410965168     59258.1650487125     54598.4598462356          12.23900032         15.074000359         13.358706116 
                18.1      181     220.185750762638    -37860.1188624591    -38045.8607898025     185.741927343439     51369.6801230729     2464.55697854686     1.69877592701403    -36013.7366231578     40369.9424963211     59028.4547360846     54710.6431368129          12.23900032         15.074000359         13.358706116 
                18.2      182     221.514670005193    -37860.1028342886     -38046.965797033     186.862962744417     51267.8859422945     2464.55697854686     1.69877592701403    -36017.3793868467     40190.4839478189     58793.8687505707     54819.3051284938          12.23900032         15.074000359         13.358706116 
                18.3      183     222.794884656255    -37860.0865141329    -38048.0294265829     187.942912449964     51158.1329594432     2464.55697854686     1.69877592701403    -36021.3079220564      39994.272985696     58556.0254125615     54924.1004800721          12.23900032         15.074000359         13.358706116 
                18.4      184     224.014457144121    -37860.0699055056    -38049.0416117974     188.971706291739     51041.5618000133     2464.55697854686     1.69877592701403    -36025.4812347575     39782.7194801709     58316.9333796417     55025.0325402273          12.23900032         15.074000359         13.358706116 
                18.5      185     225.163246233303    -37860.0530080439    -38049.9937974793     189.940789435388     50919.0103288211     2464.55697854686     1.69877592701403    -36029.8692091826     39557.0124786817     58078.3481647619     55121.6703430197          12.23900032         15.074000359         13.358706116 
                18.6      186      226.23296978975    -37860.0358281453    -38050.8790034726     190.843175327349     50791.2358881663     2464.55697854686     1.69877592701403     -36034.444630548     39318.6368188473     57841.3236335526      55213.747212099          12.23900032         15.074000359         13.358706116 
                18.7      187     227.217226779515    -37860.0183750663    -38051.6918393186     191.673464252254     50659.2271909992     2464.55697854686     1.69877592701403    -36039.1719707654     39069.4314094771     57607.3104372762     55300.9397262441          12.23900032         15.074000359         13.358706116 
                18.8      188     228.111474703383    -37860.0006592888    -38052.4284835863     192.427824297474     50523.8894878065     2464.55697854686     1.69877592701403    -36044.0187028661       38810.88733108     57377.8788462673     55382.9022860723          12.23900032         15.074000359         13.358706116 
                18.9      189     228.912975882296    -37859.9826921897    -38053.0866382308     193.103946041156     50386.0661375919     2464.55697854686     1.69877592701403    -36048.9545253445     38544.4312191311     57154.6019688789     55459.1652247657          12.23900032         15.074000359         13.358706116 
                  19      190     229.620718369752    -37859.9644898616     -38053.665465698     193.700975836352     50246.5172798523     2464.55697854686     1.69877592701403    -36053.9521325724     38271.6946757229      56938.356716354     55529.5004474801          12.23900032         15.074000359         13.358706116 
                19.1      191     230.235315467176    -37859.9460636497     -38054.165494695     194.219431045282     50106.0688172998     2464.55697854686     1.69877592701403    -36058.9818504442     37994.0044749036     56730.2576604648     55593.9443165311          12.23900032         15.074000359         13.358706116 
                19.2      192     230.758893584168    -37859.9274292013     -38054.588534643     194.661105441687     49964.8773701141     2464.55697854686     1.69877592701403    -36064.0380652025     37712.3089546464     56531.2665400297     55651.0566156661          12.23900032         15.074000359         13.358706116 
                19.3      193     231.194964089427    -37859.9086011742    -38054.9375622824     195.028961108204     49823.4377667618     2464.55697854686     1.69877592701403    -36069.1030058681     37427.5255406645     56342.4808890197      55700.306870601          12.23900032         15.074000359         13.358706116 
                19.4      194     231.548286689753    -37859.8895941462    -38055.2166073333     195.327013187102     49682.1369955441     2464.55697854686     1.69877592701403    -36074.1627774845     37140.8023910589     56164.4556755742      55741.152919999          12.23900032         15.074000359         13.358706116 
                19.5      195     231.824737783784     -37859.870422392    -38055.4306412195     195.560218827539     49541.4314695655     2464.55697854686     1.69877592701403    -36079.2009894538     36853.3188695271     55997.9740860548     55773.0014531146          12.23900032         15.074000359         13.358706116 
                19.6      196     232.031162153703    -37859.8511001779    -38055.5854522552     195.734352077246     49402.0480768732     2464.55697854686     1.69877592701403    -36084.1915294796     36566.0569182438     55844.3122321334     55795.7750802424          12.23900032         15.074000359         13.358706116 
                19.7      197     232.175236123929    -37859.8316371386     -38055.687525586     195.855888447411     49263.9005651239     2464.55697854686     1.69877592701403    -36089.1375073674     36279.5319811793      55703.645356883     55808.5243573095          12.23900032         15.074000359         13.358706116 
                19.8      198     232.265153561692    -37859.8121981212    -38055.7439381537     195.931740032421      49127.876859741     2464.55697854686     1.69877592701403    -36094.0071732295     35996.0049119924     55576.5818728818      55811.043794349          12.23900032         15.074000359         13.358706116 
                19.9      199     232.296223860102    -37859.7954614602    -38055.7534114408     195.957949980566     49033.4787902685     2464.55697854686     1.69877592701403    -36097.3833897361     35813.8105522039     55464.2471649614     55822.3786536401          12.23900032         15.074000359         13.358706116 
                  20      200      232.24552217174    -37859.7778561413    -38055.6930357369     195.915179595637     49000.7430205145     2464.55697854686     1.69877592701403    -36098.5424073535     35780.7390919087     55367.8837149063     55853.6062547287          12.23900032         15.074000359         13.358706116 
                20.1      201     232.096803743411    -37859.7582506462    -38055.5479759497      195.78972530346     49016.7452405893     2464.55697854686     1.69877592701403    -36097.9476334933     35861.6625213805     55288.8539891639     55899.7192112235          12.23900032         15.074000359         13.358706116 
                20.2      202     231.866831307629    -37859.7358668437    -38055.3315944734     195.595727629632     49055.6807833874     2464.55697854686     1.69877592701403    -36096.5257880915     35992.4124414475     55226.1048129132     55948.5250958014          12.23900032         15.074000359         13.358706116 
                20.3      203      231.61642615815    -37859.7112932907    -38055.0957868376     195.384493546955      49081.946639144     2464.55697854686     1.69877592701403     -36095.557139951     36085.8021507809     55178.5025310207     55981.5352356302          12.23900032         15.074000359         13.358706116 
                20.4      204     231.438442249031    -37859.6868354288     -38054.921187224     195.234351795269     49059.8038032098     2464.55697854686     1.69877592701403    -36096.3285628285     36056.5758169192      55144.279342862     55978.5562498483          12.23900032         15.074000359         13.358706116 
                20.5      205      231.41904005291    -37859.6651615299    -38054.8831462292     195.217984699352     48978.9864002305     2464.55697854686     1.69877592701403    -36099.2117117186     35882.0172803661     55121.9154055906     55933.0265147347          12.23900032         15.074000359         13.358706116 
                20.6      206     231.594057612157    -37859.6472948332    -38055.0129189627     195.365624129518     48828.6498416971     2464.55697854686     1.69877592701403    -36104.5973972911      35540.940712766       55109.41104028     55835.5977720453          12.23900032         15.074000359         13.358706116 
                20.7      207      231.93168761981    -37859.6318767156    -38055.2823151354     195.650438419877     48616.4952104485     2464.55697854686     1.69877592701403    -36112.2074606283     35055.9126977884     55106.4313943342     55687.1415392228          12.23900032         15.074000359         13.358706116 
                20.8      208     232.354266034117    -37859.6161733453    -38055.6230859187     196.006912573428     48369.2474591731     2464.55697854686     1.69877592701403     -36121.078591974     34491.7538115548     55113.4552640384     55502.5333019262          12.23900032         15.074000359         13.358706116 
                20.9      209     232.782898294637    -37859.5980690104    -38055.9665625758     196.368493565453     48120.2459035269     2464.55697854686     1.69877592701403    -36130.0103594078     33928.4118318945     55132.3584836644     55299.9673950218          12.23900032         15.074000359         13.358706116 
                  21      210     233.173469802448    -37859.5771512964    -38056.2751189735     196.697967677084      47898.872774453     2464.55697854686     1.69877592701403    -36137.9462639438     33434.4025471634     55164.9436001403     55097.2721760553          12.23900032         15.074000359         13.358706116 
                21.1      211     233.525801185721    -37859.5543035743      -38056.54948717     196.995183595762     47723.7518413848     2464.55697854686     1.69877592701403    -36144.2177941461     33051.8672346691      55212.658135028     54906.7301544572          12.23900032         15.074000359         13.358706116 
                21.2      212     233.870808480117    -37859.5306893109    -38056.8169104492     197.286221138322     47602.1537084095     2464.55697854686     1.69877592701403    -36148.5647859001     32795.0685127102     55276.7381189493      54734.654493569          12.23900032         15.074000359         13.358706116 
                21.3      213     234.242186203063    -37859.5099662273    -38057.1094701906     197.599503963361      47505.183955448     2464.55697854686     1.69877592701403    -36152.0294500953     32593.9757529061      55355.914118668       54565.66199477          12.23900032         15.074000359         13.358706116 
                21.4      214     234.653324480642    -37859.4892145501    -38057.4355421195      197.94632756942     47395.3907308692     2464.55697854686     1.69877592701403    -36155.9550001932     32360.6877801087     55447.6908235101      54377.793588989          12.23900032         15.074000359         13.358706116 
                21.5      215     235.104440298708    -37859.4684136059     -38057.795288605      198.32687499909     47272.8629626538     2464.55697854686     1.69877592701403     -36160.338219179     32094.6552681632     55552.1705378959     54171.7630819023          12.23900032         15.074000359         13.358706116 
                21.6      216     235.594303789296    -37859.4475534911    -38058.1876622647     198.740108773582     47139.4259716048     2464.55697854686     1.69877592701403    -36165.1134895783     31799.7357470907     55669.0145266759     53949.5276410478          12.23900032         15.074000359         13.358706116 
                21.7      217     236.120334963974    -37859.4266216405    -38058.6104741345     199.183852494004     46998.6900034695     2464.55697854686     1.69877592701403    -36170.1510356347     31484.4083785073     55797.8559298723     53713.8057020288          12.23900032         15.074000359         13.358706116 
                21.8      218     236.678829865333    -37859.4055947982     -38059.060576414     199.654981615806     46855.8896932111     2464.55697854686     1.69877592701403    -36175.2626854218      31159.898331698     55939.1279232321     53468.6428247032          12.23900032         15.074000359         13.358706116 
                21.9      219     237.265275951246    -37859.3844549679    -38059.5341444652     200.149689497234     46716.9009063544     2464.55697854686     1.69877592701403    -36180.2372244998     30839.3462053163     56092.6762969949     53218.6802167519          12.23900032         15.074000359         13.358706116 
                  22      220     237.874652292027    -37859.3631878413    -38060.0269284777     200.663740636429     46587.9114613375     2464.55697854686     1.69877592701403    -36184.8522295821     30537.0001514264     56258.0144683452     52968.7197642408          12.23900032         15.074000359         13.358706116 
                22.1      221     238.501659827426    -37859.3417850065    -38060.5344499156     201.192664909142     46474.8413178286     2464.55697854686     1.69877592701403    -36188.8949109361     30266.5119499755     56434.7166585171     52723.2953449933          12.23900032         15.074000359         13.358706116 
                22.2      222      239.14084868257    -37859.3202450939    -38061.0521100625     201.731864968545     46383.1142747822     2464.55697854686     1.69877592701403    -36192.1703193934     30040.2257468005     56622.4535145267     52486.6635630195          12.23900032         15.074000359         13.358706116 
                22.3      223      239.78664025176    -37859.2985730985     -38061.575207973     202.276634874445     46317.5151726285     2464.55697854686     1.69877592701403    -36194.5064782594     29868.6763387624      56820.928824812     52262.9403543111          12.23900032         15.074000359         13.358706116 
                22.4      224     240.433262626351     -37859.276774055    -38062.0988796773     202.822105622229     46282.0471989318     2464.55697854686     1.69877592701403    -36195.7595058556     29760.2213964355     57030.1909163428     52055.7292840171          12.23900032         15.074000359         13.358706116 
                22.5      225     241.074671447622    -37859.2548480498    -38062.6180264266      203.36317837678      46279.837229538     2464.55697854686     1.69877592701403    -36195.8170128589     29721.4932202139     57250.1077386242     51867.9107297758          12.23900032         15.074000359         13.358706116 
                22.6      226     241.704174899297    -37859.2329149405    -38063.1271230682       203.8942081277     46304.4206923388     2464.55697854686     1.69877592701403     -36194.911475472     29737.4511733982     57479.3032615669     51696.5076420513          12.23900032         15.074000359         13.358706116 
                22.7      227     242.313862392796    -37859.2108767394    -38063.6193984852     204.408521745758     46343.1366879868     2464.55697854686     1.69877592701403    -36193.4978668627      29778.306462088     57716.4527789627     51534.6508229097          12.23900032         15.074000359         13.358706116 
                22.8      228     242.894886758689    -37859.1887223007    -38064.0873783316     204.898656030927     46395.8410172464     2464.55697854686     1.69877592701403    -36191.5813588433     29843.7900237625     57960.6762797353     51383.0567482413          12.23900032         15.074000359         13.358706116 
                22.9      229     243.438062727157    -37859.1664485136    -38064.5233110857     205.356862572088     46462.6826224325     2464.55697854686     1.69877592701403    -36189.1565948642     29933.6877026298     58211.7005804497     51242.6595842179          12.23900032         15.074000359         13.358706116 
                  23      230     243.934078535307    -37859.1440403172    -38064.9193265696     205.775286252456      46543.400596709     2464.55697854686     1.69877592701403    -36186.2329376481     30047.6789621389     58468.4513137252     51114.0715142628          12.23900032         15.074000359         13.358706116 
                23.1      231     244.373752261395     -37859.121490815    -38065.2676723003     206.146181485244     46637.7546167731     2464.55697854686     1.69877592701403    -36182.8190182477     30185.5049662773      58729.663023767     50998.0958602752          12.23900032         15.074000359         13.358706116 
                23.2      232     244.748280509853    -37859.0987951469    -38065.5609171436     206.462121996708     46745.4782334794     2464.55697854686     1.69877592701403    -36178.9244087937     30347.0563080338     58994.1959359185      50895.182456486          12.23900032         15.074000359         13.358706116 
                23.3      233     245.049479853928    -37859.0759456856    -38065.7921501853     206.716204499729     46866.1130374292     2464.55697854686     1.69877592701403    -36174.5655782844     30531.6048644187     59260.9343126081     50805.7999352607          12.23900032         15.074000359         13.358706116 
                23.4      234     245.270030296291    -37859.0529368312    -38065.9551909009      206.90225406969     46999.2833242834     2464.55697854686     1.69877592701403    -36169.7560250743     30738.6482210293     59528.8446370492     50730.3571147716          12.23900032         15.074000359         13.358706116 
                23.5      235     245.403730967199    -37859.0297620312    -38066.0448018748      207.01503984359     47144.6885746556     2464.55697854686     1.69877592701403    -36164.5065441898     30967.5837555342      59796.983147068     50669.4988213646          12.23900032         15.074000359         13.358706116 
                23.6      236     245.445735165061    -37859.0064178255    -38066.0568911186     207.050473293032     47301.6665899807     2464.55697854686     1.69877592701403    -36158.8409335974     31217.4731793809     60063.9354706261     50623.5911199352          12.23900032         15.074000359         13.358706116 
                23.7      237      245.39277815204    -37858.9829049581    -38065.9887053437     207.005800385585      47469.443973026     2464.55697854686     1.69877592701403    -36152.7869922852     31487.5768304623     60328.3227659884     50592.4323226273          12.23900032         15.074000359         13.358706116 
                23.8      238     245.243348637776     -37858.959226946    -38065.8389731892     206.879746243184     47647.2809930563     2464.55697854686     1.69877592701403    -36146.3713119385     31776.7513108537      60588.956794686     50576.1348736292          12.23900032         15.074000359         13.358706116 
                23.9      239     244.997795821092    -37858.9353856657    -38065.6079911049     206.672605439215     47834.3023398406     2464.55697854686     1.69877592701403    -36139.6253557405     32083.8134362625     60844.7191039633     50574.3744792961          12.23900032         15.074000359         13.358706116 
[...]
                44.4      444     250.455320818303    -37852.6276167835    -38063.9040224595     211.276405676042     55078.8523905476     2464.55697854686     1.69877592701403    -35872.9264667791     52412.7017176388     58610.5182582087     54213.3371957953          12.23900032         15.074000359         13.358706116 
                44.5      445     251.756632601878    -37852.5893766064    -38064.9635288801     212.374152273716     55039.3334972068     2464.55697854686     1.69877592701403    -35874.3086555906     52330.8035929033     58509.1123781698     54278.0845205473          12.23900032         15.074000359         13.358706116 
                44.6      446     253.032508389963    -37852.5508918327    -38066.0013336806     213.450441847899     54997.1379668999     2464.55697854686     1.69877592701403    -35875.7868062632      52241.223645188     58400.7712550381     54349.4190004734          12.23900032         15.074000359         13.358706116 
                44.7      447     254.264833662181    -37852.5121469616     -38067.002140508     214.489993546332     54952.9846060451     2464.55697854686     1.69877592701403    -35877.3350672114     52145.0686487561     58286.3002612755     54427.5849081036          12.23900032         15.074000359         13.358706116 
                44.8      448     255.436021565823    -37852.4731314338    -38067.9511030747     215.477971640964     54907.1989375113     2464.55697854686     1.69877592701403    -35878.9417275957     52042.1447980067     58166.7189195249     54512.7330950024          12.23900032         15.074000359         13.358706116 
                44.9      449     256.529390120782     -37852.433841369    -38068.8341450954     216.400303726448     54860.3331140203     2464.55697854686     1.69877592701403    -35880.5869374911     51932.9222181843     58043.2866619758     54604.7904619009          12.23900032         15.074000359         13.358706116 
                  45      450     257.529535072114    -37852.3942699967    -38069.6382652438     217.243995247084     54812.6822295871     2464.55697854686     1.69877592701403    -35882.2600835524     51817.6601919772     57916.9884537843     54703.3980429998          12.23900032         15.074000359         13.358706116 
                45.1      451     258.422689283699    -37852.3544183509    -38070.3518510212      217.99743267026     54764.6685697335     2464.55697854686     1.69877592701403    -35883.9459885901       51696.71495569      57788.996409333     54808.2943441775          12.23900032         15.074000359         13.358706116 
                45.2      452     259.197040378016    -37852.3142916258    -38070.9649430634       218.6506514376     54716.6568515428     2464.55697854686     1.69877592701403    -35885.6315487591     51570.4786845857     57660.3021970471     54919.1896729956          12.23900032         15.074000359         13.358706116 
                45.3      453     259.843002530858    -37852.2738961234    -38071.4694613661     219.195565242623     54668.9796733687     2464.55697854686     1.69877592701403    -35887.3048157672     51439.5141894702     57531.8453752117     55035.5794554242          12.23900032         15.074000359         13.358706116 
                45.4      454     260.353473101833    -37852.2332444343    -38071.8594269506      219.62618251634     54621.7564238205     2464.55697854686     1.69877592701403    -35888.9615110157     51303.7701781652     57404.7682826847     55156.7308106115          12.23900032         15.074000359         13.358706116 
                45.5      455     260.724027891644     -37852.192352107    -38072.1311232473     219.938771140298     54575.0495209524     2464.55697854686     1.69877592701403     -35890.599406559     51163.3419789094     57279.8699995026     55281.9365844453          12.23900032         15.074000359         13.358706116 
                45.6      456     260.953044922284    -37852.1512380453     -38072.283200909     220.131962863732     54529.0640143576     2464.55697854686     1.69877592701403    -35892.2111511961     51018.4315221604     57157.8719850695     55410.8885358428          12.23900032         15.074000359         13.358706116 
                45.7      457     261.033412876603    -37852.1121662064    -38072.3119250046     220.199758798211     54510.9697827212     2464.55697854686     1.69877592701403    -35892.8224409683      50882.143391722     57051.0582049948     55599.7077514467          12.23900032         15.074000359         13.358706116 
                45.8      458     260.948073139847    -37852.0720718979    -38072.1998407189      220.12776882098     54542.1823312255     2464.55697854686     1.69877592701403    -35891.6604729191      50766.657126467     56968.1434326774     55891.7464345319          12.23900032         15.074000359         13.358706116 
                45.9      459     260.688535626046    -37852.0303460122    -38071.9391769688     219.908830956634      54608.654587192     2464.55697854686     1.69877592701403    -35889.2295323735     50667.8390914436     56901.5548304844     56256.5698396478          12.23900032         15.074000359         13.358706116 
                  46      460     260.273915913656    -37851.9867580648    -38071.5458285841     219.559070519244     54688.5086261484     2464.55697854686     1.69877592701403    -35886.3157478644      50576.460675571     56841.3400482709     56647.7251546031          12.23900032         15.074000359         13.358706116 
                46.1      461     259.754070743338    -37851.9419687318    -38071.0625138536     219.120545121843     54754.1123831523     2464.55697854686     1.69877592701403    -35883.9129603605     50479.1296748286     56776.5006594158     57006.7068152124          12.23900032         15.074000359         13.358706116 
                46.2      462      259.19784538102     -37851.897518306    -38070.5488488194     218.651330513376     54777.2076061082     2464.55697854686     1.69877592701403    -35883.0383975148     50359.4667825777     56696.7525805145     57275.4034552324          12.23900032         15.074000359         13.358706116 
                46.3      463      258.66737652224     -37851.855003446    -38070.0588467452     218.203843299129     54737.3944192483     2464.55697854686     1.69877592701403    -35884.4268894459     50203.2957053333     56596.4368806102     57412.4506718014          12.23900032         15.074000359         13.358706116 
                46.4      464     258.191943065191    -37851.8149763169     -38069.617758574     217.802782257123     54628.3457620851     2464.55697854686     1.69877592701403    -35888.3064020788     50003.3216605116     56475.7077440284     57406.0078817154          12.23900032         15.074000359         13.358706116 
                46.5      465     257.758865857703    -37851.7765398411    -38069.2139914856     217.437451644544     54460.6419495873     2464.55697854686     1.69877592701403    -35894.2957496989     49762.0079534303     56341.0795927221     57278.8383026096          12.23900032         15.074000359         13.358706116 
                46.6      466     257.327894768071     -37851.738021436    -38068.8119191242     217.073897688213     54259.0278912787     2464.55697854686     1.69877592701403    -35901.5038525608     49491.2349126273     56202.6219174417     57083.2268437671          12.23900032         15.074000359         13.358706116 
                46.7      467     256.858572410353    -37851.6981009248    -38068.3760927064      216.67799178165     54052.3094818322     2464.55697854686     1.69877592701403    -35908.8940191909     49207.5421523286     56071.2376372132     56878.1486559546          12.23900032         15.074000359         13.358706116 
                46.8      468     256.332700814792     -37851.656431624    -38067.8908143013     216.234382677262     53867.0959878283     2464.55697854686     1.69877592701403     -35915.509485091       48928.27014834     55955.6777189123     56717.3400962325          12.23900032         15.074000359         13.358706116 
                46.9      469     255.761377862098    -37851.6134550984    -38067.3658873043     215.752432205892     53723.2821234885     2464.55697854686     1.69877592701403    -35920.6356154052     48668.4716472433     55861.2582530566     56640.1164701656          12.23900032         15.074000359         13.358706116 
                  47      470     255.177985110184    -37851.5703689544    -38066.8306689775     215.260300023118     53630.5005796866     2464.55697854686     1.69877592701403    -35923.9273795892     48437.5470641336     55789.2538202141     56664.7008547121          12.23900032         15.074000359         13.358706116 
                47.1      471     254.614205027038    -37851.5292540274    -38066.3139665119     214.784712484512     53552.9023119757     2464.55697854686     1.69877592701403    -35926.6753819579     48214.7628448651     55726.5738859922     56717.3702050699          12.23900032         15.074000359         13.358706116 
                47.2      472     254.087455613923    -37851.4882187579    -38065.8285816381     214.340362880233     53476.9669312933     2464.55697854686     1.69877592701403    -35929.3636947764     47992.1766288299     55668.6612622106     56770.0629028395          12.23900032         15.074000359         13.358706116 
                47.3      473      253.61051313432    -37851.4472706624    -38065.3852995356     213.938028873212     53402.4462669676     2464.55697854686     1.69877592701403    -35932.0012455687     47770.6191104146     55614.8877341806     56821.8319563076          12.23900032         15.074000359         13.358706116 
                47.4      474     253.195536921928    -37851.4064155545    -38064.9943832579     213.587967703384     53329.5223274238     2464.55697854686     1.69877592701403    -35934.5814982129     47551.0416024973     55565.0165084884     56872.5088712856          12.23900032         15.074000359         13.358706116 
                47.5      475     252.853802552559    -37851.3656551368    -38064.6653462365     213.299691099715     53258.0150852458     2464.55697854686     1.69877592701403    -35937.1109251434     47334.2764704306     55518.0836528389     56921.6851324678          12.23900032         15.074000359         13.358706116 
                47.6      476     252.595460103265     -37851.324989282    -38064.4067506371     213.081761355033     53188.0723207898     2464.55697854686     1.69877592701403    -35939.5842145586     47121.1224957091     55473.7164900874     56969.3779765729          12.23900032         15.074000359         13.358706116 
                47.7      477     252.429297155867     -37851.284415383    -38064.2260067861     212.941591403091      53119.999936129     2464.55697854686     1.69877592701403     -35941.990368802     46912.7666895499     55431.8720062743     57015.3611125627          12.23900032         15.074000359         13.358706116 
                47.8      478     252.362539531931    -37851.2439255073     -38064.129202232     212.885276724726     53054.1730971145     2464.55697854686     1.69877592701403    -35944.3158953417       46710.92164643     55392.1395402656     57059.4581046478          12.23900032         15.074000359         13.358706116 
                47.9      479     252.400712988324    -37851.2035080728    -38064.1209867513     212.917478678482     52990.4556016123     2464.55697854686     1.69877592701403    -35946.5656781138     46516.0769915127     55354.0251254432     57101.2646878811          12.23900032         15.074000359         13.358706116 
                  48      480     252.547536285547    -37851.1631498115    -38064.2044841078     213.041334296344     52928.9936672183     2464.55697854686     1.69877592701403    -35948.7344483458      46329.096096321      55316.978644488     57140.9062608459          12.23900032         15.074000359         13.358706116 
                48.1      481     252.804860244742    -37851.1228352156    -38064.3812400897     213.258404874103     52869.8672499137     2464.55697854686     1.69877592701403    -35950.8193166696     46150.8783072179     55280.5815790283     57178.1418634947          12.23900032         15.074000359         13.358706116 
                48.2      482     253.172644611601    -37851.0825472468    -38064.6512037013     213.568656454465     52813.3793342467     2464.55697854686     1.69877592701403    -35952.8093758623     45982.4453527731     55244.6960136681      57212.996636299          12.23900032         15.074000359         13.358706116 
                48.3      483     253.648978216017    -37851.0422627355    -38065.0127395687     213.970476833105     52759.7889799334     2464.55697854686     1.69877592701403    -35954.6952913617     45825.1178603923     55209.0653342263     57245.1837451815          12.23900032         15.074000359         13.358706116 
                48.4      484     254.230159273714    -37851.0019600164    -38065.4627033151     214.460743298661     52709.2904293732     2464.55697854686     1.69877592701403     -35956.470059841     45679.7193270979     55173.5551962043     57274.5967648173          12.23900032         15.074000359         13.358706116 
                48.5      485     254.910805924549    -37850.9616155538    -38065.9965314332     215.034915879439     52662.0894870772     2464.55697854686     1.69877592701403    -35958.1262605257     45546.6719107361     55138.4321810659     57301.1643694295          12.23900032         15.074000359         13.358706116 
                48.6      486     255.684003602736    -37850.9212060352    -38066.6083676956     215.687161660406      52618.507086985     2464.55697854686     1.69877592701403    -35959.6523347634     45427.0028984996     55103.5349972924     57324.9833651629          12.23900032         15.074000359         13.358706116 
                48.7      487     256.541468579938    -37850.8807103507    -38067.2912030938     216.410492743109     52578.9555036927     2464.55697854686     1.69877592701403    -35961.0334430436     45321.7446403042     55069.1693033791     57345.9525673947          12.23900032         15.074000359         13.358706116 
                48.8      488     257.473709480602    -37850.8401071475    -38068.0370096426     217.196902495048     52543.6518777887     2464.55697854686     1.69877592701403    -35962.2617593216     45231.2035829863     55035.6519913136     57364.1000590661          12.23900032         15.074000359         13.358706116 
                48.9      489     258.470218939438    -37850.7993747293    -38068.8369019553     218.037527226026     52512.7000531519     2464.55697854686     1.69877592701403    -35963.3335294369     45155.9585251201     55002.7364323774     57379.4052019582          12.23900032         15.074000359         13.358706116 
                  49      490     259.519677716963    -37850.7584973533    -38069.6813157271      218.92281837375     52486.4038439446     2464.55697854686     1.69877592701403    -35964.2378176436     45096.5644752683     54970.6592340545     57391.9878225108          12.23900032         15.074000359         13.358706116 
                49.1      491     260.610141972971    -37850.7174586742    -38070.5601591561     219.842700481963     52465.1478705241     2464.55697854686     1.69877592701403    -35964.9607831729     45053.6008824797     54939.9127397515     57401.9299893411          12.23900032         15.074000359         13.358706116 
                49.2      492     261.729223521096    -37850.6762474268    -38071.4629706844     220.786723257657     52449.4054265427     2464.55697854686     1.69877592701403    -35965.4854031493     45027.5742919572      54911.022767706     57409.6192199647          12.23900032         15.074000359         13.358706116 
                49.3      493     262.864277241123    -37850.6348489383    -38072.3790686046      221.74421966633     52439.8121886446     2464.55697854686     1.69877592701403    -35965.7888147517     45019.1781995558     54884.6622213753     57415.5961450025          12.23900032         15.074000359         13.358706116 
                49.4      494     264.002594206091    -37850.5932554001    -38073.2977242482     222.704468848072     52436.4938658638     2464.55697854686     1.69877592701403    -35965.8664918073     45028.3774869611     54860.9832261558     57420.1208844744          12.23900032         15.074000359         13.358706116 
                49.5      495     265.131572123795    -37850.5514601759    -38074.2083000727     223.656839896771     52439.9679471343     2464.55697854686     1.69877592701403    -35965.6998275564     45055.3813186788     54840.5841146837     57423.9384080402          12.23900032         15.074000359         13.358706116 
                49.6      496     266.238889849646    -37850.5094601116    -38075.1003991854     224.590939073801     52450.4243520693     2464.55697854686     1.69877592701403    -35965.2819925577     45100.4618096858     54824.0699230797     57426.7413234425          12.23900032         15.074000359         13.358706116 
                49.7      497      267.31267232932    -37850.4672561029    -38075.9640050515     225.496748948561     52467.9502692781     2464.55697854686     1.69877592701403    -35964.6098538835     45163.5174218348     54811.6031860451     57428.7301999545          12.23900032         15.074000359         13.358706116 
                49.8      498     268.341628855082    -37850.4248459791    -38076.7895910063     226.364745027261     52492.5684321907     2464.55697854686     1.69877592701403    -35963.6825922547     45244.3541553265     54803.3077842492     57430.0433569963          12.23900032         15.074000359         13.358706116 
                49.9      499     269.315206364962    -37850.3822339961    -38077.5682590675     227.186025071392     52524.5400274231     2464.55697854686     1.69877592701403    -35962.4908240875      45342.820206351     54799.7722404564     57431.0276354618          12.23900032         15.074000359         13.358706116 
                  50      500     270.223746015118    -37850.3394233071    -38078.2918644844     227.952441177355     52563.8696398567     2464.55697854686     1.69877592701403    -35961.0343877403     45458.5380261169     54801.0906690079     57431.9802244453          12.23900032         15.074000359         13.358706116 
Loop time of 10.2126 on 36 procs for 500 steps with 284 atoms

Performance: 0.423 ns/day, 56.737 hours/ns, 48.959 timesteps/s
-0.0% CPU use with 36 MPI tasks x no OpenMP threads

MPI task timing breakdown:
Section |  min time  |  avg time  |  max time  |%varavg| %total
---------------------------------------------------------------
Pair    | 0.90162    | 4.449      | 8.387      |  68.6 | 43.56
Neigh   | 1.1163     | 1.1514     | 1.1996     |   2.1 | 11.27
Comm    | 0.15829    | 4.1017     | 7.6189     |  71.3 | 40.16
Output  | 0.50581    | 0.50603    | 0.51176    |   0.1 |  4.96
Modify  | 0.0031142  | 0.0035468  | 0.0039918  |   0.4 |  0.03
Other   |            | 0.0008886  |            |       |  0.01

Nlocal:        7.88889 ave          11 max           4 min
Histogram: 1 4 5 0 5 5 0 8 5 3
Nghost:        678.667 ave         697 max         659 min
Histogram: 2 3 3 6 4 2 5 4 6 1
Neighs:        0.00000 ave           0 max           0 min
Histogram: 36 0 0 0 0 0 0 0 0 0
FullNghs:      1297.56 ave        1815 max         659 min
Histogram: 1 4 5 1 4 5 1 7 5 3

Total # of neighbors = 46712
Ave neighs/atom = 164.47887
Neighbor list builds = 500
Dangerous builds not checked
Total wall time: 0:00:10
