LAMMPS (29 Oct 2020)
Reading data file ...
  triclinic box = (0.0000000 0.0000000 0.0000000) to (12.239000 15.074000 13.358706) with tilt (0.0000000 -2.8097638 0.0000000)
  3 by 4 by 3 MPI processor grid
  reading atoms ...
  284 atoms
  read_data CPU = 0.009 seconds
chimesFF: 
chimesFF: 01000011011010001001001010011010100010101010011 0100010101101110110011101101001011011101100101  
chimesFF: 
chimesFF:       _____  _      _____  __  __  ______   _____   ______                _                      
chimesFF:      / ____|| |    |_   _||  \/  ||  ____| / ____| |  ____|              (_)                    
chimesFF:     | |     | |__    | |  | \  / || |__   | (___   | |__    _ __    __ _  _  _ __    ___        
chimesFF:     | |     | '_ \   | |  | |\/| ||  __|   \___ \  |  __|  | '_ \  / _` || || '_ \  / _ \ 
chimesFF:     | |____ | | | | _| |_ | |  | || |____  ____) | | |____ | | | || (_| || || | | ||  __/        
chimesFF:      \_____||_| |_||_____||_|  |_||______||_____/  |______||_| |_| \__, ||_||_| |_| \___|     
chimesFF:                                                                     __/ |                        
chimesFF:                                                                    |___/                         
chimesFF: 
chimesFF:                      Copyright (C) 2020 R.K. Lindsey, L.E. Fried, N. Goldman                     
chimesFF: 
chimesFF: 01000011011010001001001010011010100010101010011 0100010101101110110011101101001011011101100101   
chimesFF: 

************************* WARNING (pair_style chimesFF) ************************
Assuming n-body interactions have longer cutoffs than all (n+1)-body interactions
************************* WARNING (pair_style chimesFF) ************************

chimesFF: Reading parameters from file: ../../../1-fit/ChIMES_params.txt
chimesFF: Using respective 2, 3, and 4-body orders of: 12 8 0
chimesFF: Note: Ignoring polynomial domain; assuming [-1,1]
chimesFF: Will consider 5 atom types:
chimesFF: 	0 Al
chimesFF: 	1 C
chimesFF: 	2 H
chimesFF: 	3 N
chimesFF: 	4 O
chimesFF: Will consider 15 atom pair types
chimesFF: Detected version 2 pair specification (no S_DELTA)
chimesFF: 	0 Al Al
chimesFF: 	1 C C
chimesFF: 	2 H H
chimesFF: 	3 N N
chimesFF: 	4 O O
chimesFF: 	5 Al C
chimesFF: 	6 Al H
chimesFF: 	7 Al N
chimesFF: 	8 Al O
chimesFF: 	9 C H
chimesFF: 	10 C N
chimesFF: 	11 C O
chimesFF: 	12 H N
chimesFF: 	13 H O
chimesFF: 	14 N O
chimesFF: Read the following pair type information:
chimesFF: 	Al Al r_cut_in: 2.75200 r_cut_out: 6.00000 MORSE 2.40000
chimesFF: 	C C r_cut_in: 0.95100 r_cut_out: 6.00000 MORSE 1.54000
chimesFF: 	H H r_cut_in: 0.45300 r_cut_out: 6.00000 MORSE 0.74000
chimesFF: 	N N r_cut_in: 0.93700 r_cut_out: 6.00000 MORSE 1.35000
chimesFF: 	O O r_cut_in: 1.14300 r_cut_out: 6.00000 MORSE 1.21000
chimesFF: 	Al C r_cut_in: 2.31000 r_cut_out: 6.00000 MORSE 2.00000
chimesFF: 	Al H r_cut_in: 1.96500 r_cut_out: 6.00000 MORSE 1.60000
chimesFF: 	Al N r_cut_in: 3.49800 r_cut_out: 6.00000 MORSE 1.90000
chimesFF: 	Al O r_cut_in: 1.44800 r_cut_out: 6.00000 MORSE 1.70000
chimesFF: 	C H r_cut_in: 0.69100 r_cut_out: 6.00000 MORSE 1.09000
chimesFF: 	C N r_cut_in: 0.99600 r_cut_out: 6.00000 MORSE 1.48000
chimesFF: 	C O r_cut_in: 0.85300 r_cut_out: 6.00000 MORSE 1.16000
chimesFF: 	H N r_cut_in: 0.67100 r_cut_out: 6.00000 MORSE 1.01000
chimesFF: 	H O r_cut_in: 0.54200 r_cut_out: 6.00000 MORSE 0.97000
chimesFF: 	N O r_cut_in: 1.04200 r_cut_out: 6.00000 MORSE 1.27000
chimesFF: Will use cutoff style TERSOFF
 0.95000
chimesFF: Will use penalty distance: 0.30000
chimesFF: Will use penalty scaling: 100000.00000
chimesFF: Will use single atom energy offsets: 
chimesFF: 	1 Al 0.00000
chimesFF: 	2 C -108.90174
chimesFF: 	3 H 0.00000
chimesFF: 	4 N -167.95251
chimesFF: 	5 O -244.30465
chimesFF: Read 2B parameters for pair: 0 Al Al
chimesFF: 	0 0.00000
chimesFF: 	1 0.00000
chimesFF: 	2 0.00000
chimesFF: 	3 0.00000
chimesFF: 	4 0.00000
chimesFF: 	5 0.00000
chimesFF: 	6 0.00000
chimesFF: 	7 0.00000
chimesFF: 	8 0.00000
chimesFF: 	9 0.00000
chimesFF: 	10 -0.38175
chimesFF: 	11 0.00000
chimesFF: Read 2B parameters for pair: 1 C C
chimesFF: 	0 0.00000
chimesFF: 	1 0.00000
chimesFF: 	2 2.38563
chimesFF: 	3 4.49284
chimesFF: 	4 -2.47542
chimesFF: 	5 -9.49562
chimesFF: 	6 -4.11891
chimesFF: 	7 3.93150
chimesFF: 	8 0.34066
chimesFF: 	9 -0.42333
chimesFF: 	10 -0.61850
chimesFF: 	11 1.32704
chimesFF: Read 2B parameters for pair: 2 H H
chimesFF: 	0 -0.02549
chimesFF: 	1 0.00000
chimesFF: 	2 0.00000
chimesFF: 	3 0.00000
chimesFF: 	4 -0.49675
chimesFF: 	5 0.00000
chimesFF: 	6 0.00000
chimesFF: 	7 -0.16426
chimesFF: 	8 0.00000
chimesFF: 	9 0.06181
chimesFF: 	10 0.41547
chimesFF: 	11 0.10732
chimesFF: Read 2B parameters for pair: 3 N N
chimesFF: 	0 0.00000
chimesFF: 	1 0.00000
chimesFF: 	2 0.00000
chimesFF: 	3 0.00000
chimesFF: 	4 -0.44084
chimesFF: 	5 0.00000
chimesFF: 	6 0.00000
chimesFF: 	7 0.00000
chimesFF: 	8 0.00000
chimesFF: 	9 -0.89874
chimesFF: 	10 0.00000
chimesFF: 	11 1.08805
chimesFF: Read 2B parameters for pair: 4 O O
chimesFF: 	0 0.00000
chimesFF: 	1 -4.64163
chimesFF: 	2 0.00000
chimesFF: 	3 5.63528
chimesFF: 	4 0.00000
chimesFF: 	5 -1.90275
chimesFF: 	6 0.00000
chimesFF: 	7 0.00000
chimesFF: 	8 0.03489
chimesFF: 	9 0.00000
chimesFF: 	10 -0.11975
chimesFF: 	11 0.33367
chimesFF: Read 2B parameters for pair: 5 Al C
chimesFF: 	0 0.00000
chimesFF: 	1 0.00000
chimesFF: 	2 0.00000
chimesFF: 	3 0.00000
chimesFF: 	4 -4.70684
chimesFF: 	5 0.00000
chimesFF: 	6 0.00000
chimesFF: 	7 -0.16952
chimesFF: 	8 0.00000
chimesFF: 	9 0.00000
chimesFF: 	10 -0.71744
chimesFF: 	11 0.46287
chimesFF: Read 2B parameters for pair: 6 Al H
chimesFF: 	0 0.00000
chimesFF: 	1 0.00000
chimesFF: 	2 -0.90225
chimesFF: 	3 -0.05134
chimesFF: 	4 0.00000
chimesFF: 	5 -0.03930
chimesFF: 	6 0.26432
chimesFF: 	7 0.21089
chimesFF: 	8 0.00000
chimesFF: 	9 0.00000
chimesFF: 	10 -0.11159
chimesFF: 	11 0.04203
chimesFF: Read 2B parameters for pair: 7 Al N
chimesFF: 	0 0.00000
chimesFF: 	1 0.00000
chimesFF: 	2 0.00000
chimesFF: 	3 0.00000
chimesFF: 	4 0.00000
chimesFF: 	5 0.00000
chimesFF: 	6 0.00000
chimesFF: 	7 0.00000
chimesFF: 	8 0.00000
chimesFF: 	9 0.00000
chimesFF: 	10 0.18132
chimesFF: 	11 0.00000
chimesFF: Read 2B parameters for pair: 8 Al O
chimesFF: 	0 0.00000
chimesFF: 	1 0.00000
chimesFF: 	2 1.91463
chimesFF: 	3 2.34233
chimesFF: 	4 0.00000
chimesFF: 	5 0.00000
chimesFF: 	6 -1.04294
chimesFF: 	7 0.00000
chimesFF: 	8 0.00000
chimesFF: 	9 0.00000
chimesFF: 	10 -0.09751
chimesFF: 	11 -0.06136
chimesFF: Read 2B parameters for pair: 9 C H
chimesFF: 	0 -1.44300
chimesFF: 	1 0.00000
chimesFF: 	2 3.86700
chimesFF: 	3 -0.21184
chimesFF: 	4 -7.78155
chimesFF: 	5 -4.82936
chimesFF: 	6 0.00000
chimesFF: 	7 1.15294
chimesFF: 	8 -0.63747
chimesFF: 	9 -0.13160
chimesFF: 	10 1.03466
chimesFF: 	11 0.59022
chimesFF: Read 2B parameters for pair: 10 C N
chimesFF: 	0 0.00000
chimesFF: 	1 0.17810
chimesFF: 	2 -12.65766
chimesFF: 	3 3.39668
chimesFF: 	4 3.84329
chimesFF: 	5 -3.32581
chimesFF: 	6 -6.61872
chimesFF: 	7 0.00000
chimesFF: 	8 -1.72245
chimesFF: 	9 -0.48552
chimesFF: 	10 -1.78790
chimesFF: 	11 0.00000
chimesFF: Read 2B parameters for pair: 11 C O
chimesFF: 	0 -4.32084
chimesFF: 	1 0.00000
chimesFF: 	2 9.64648
chimesFF: 	3 0.00000
chimesFF: 	4 -16.44186
chimesFF: 	5 -14.70186
chimesFF: 	6 -2.84244
chimesFF: 	7 -1.47255
chimesFF: 	8 -2.51158
chimesFF: 	9 -0.31105
chimesFF: 	10 0.86443
chimesFF: 	11 -0.24018
chimesFF: Read 2B parameters for pair: 12 H N
chimesFF: 	0 0.95416
chimesFF: 	1 0.00000
chimesFF: 	2 0.00000
chimesFF: 	3 -1.58805
chimesFF: 	4 -4.18107
chimesFF: 	5 -2.28325
chimesFF: 	6 0.00000
chimesFF: 	7 0.25305
chimesFF: 	8 0.00000
chimesFF: 	9 0.00000
chimesFF: 	10 0.61442
chimesFF: 	11 0.27682
chimesFF: Read 2B parameters for pair: 13 H O
chimesFF: 	0 6.77731
chimesFF: 	1 15.04400
chimesFF: 	2 0.00000
chimesFF: 	3 -21.57492
chimesFF: 	4 -27.33832
chimesFF: 	5 -14.04126
chimesFF: 	6 -4.53354
chimesFF: 	7 -0.96527
chimesFF: 	8 0.00000
chimesFF: 	9 1.63006
chimesFF: 	10 0.80204
chimesFF: 	11 0.50314
chimesFF: Read 2B parameters for pair: 14 N O
chimesFF: 	0 0.00000
chimesFF: 	1 -2.60604
chimesFF: 	2 0.00000
chimesFF: 	3 1.76741
chimesFF: 	4 0.00000
chimesFF: 	5 -1.48092
chimesFF: 	6 0.00000
chimesFF: 	7 0.00000
chimesFF: 	8 -1.64404
chimesFF: 	9 0.00000
chimesFF: 	10 0.45171
chimesFF: 	11 0.34385
chimesFF: Built the following 2-body pair "slow" map:
chimesFF: 	0 AlAl(i: 0)
chimesFF: 	5 AlC(i: 1)
chimesFF: 	6 AlH(i: 2)
chimesFF: 	7 AlN(i: 3)
chimesFF: 	8 AlO(i: 4)
chimesFF: 	5 CAl(i: 5)
chimesFF: 	1 CC(i: 6)
chimesFF: 	9 CH(i: 7)
chimesFF: 	10 CN(i: 8)
chimesFF: 	11 CO(i: 9)
chimesFF: 	6 HAl(i: 10)
chimesFF: 	9 HC(i: 11)
chimesFF: 	2 HH(i: 12)
chimesFF: 	12 HN(i: 13)
chimesFF: 	13 HO(i: 14)
chimesFF: 	7 NAl(i: 15)
chimesFF: 	10 NC(i: 16)
chimesFF: 	12 NH(i: 17)
chimesFF: 	3 NN(i: 18)
chimesFF: 	14 NO(i: 19)
chimesFF: 	8 OAl(i: 20)
chimesFF: 	11 OC(i: 21)
chimesFF: 	13 OH(i: 22)
chimesFF: 	14 ON(i: 23)
chimesFF: 	4 OO(i: 24)
chimesFF: Built the following 2-body pair "fast" map:
chimesFF: 	AlAl: 0 0
chimesFF: 	AlC: 1 5
chimesFF: 	AlH: 2 6
chimesFF: 	AlN: 3 7
chimesFF: 	AlO: 4 8
chimesFF: 	CAl: 5 5
chimesFF: 	CC: 6 1
chimesFF: 	CH: 7 9
chimesFF: 	CN: 8 10
chimesFF: 	CO: 9 11
chimesFF: 	HAl: 10 6
chimesFF: 	HC: 11 9
chimesFF: 	HH: 12 2
chimesFF: 	HN: 13 12
chimesFF: 	HO: 14 13
chimesFF: 	NAl: 15 7
chimesFF: 	NC: 16 10
chimesFF: 	NH: 17 12
chimesFF: 	NN: 18 3
chimesFF: 	NO: 19 14
chimesFF: 	OAl: 20 8
chimesFF: 	OC: 21 11
chimesFF: 	OH: 22 13
chimesFF: 	ON: 23 14
chimesFF: 	OO: 24 4
chimesFF: Read 3B parameters for triplet: 0 Al Al Al
chimesFF: Read 3B parameters for triplet: 1 Al Al C
chimesFF: Read 3B parameters for triplet: 2 Al Al H
chimesFF: 	0 4 7 -1.92694
chimesFF: 	0 7 4 -1.92694
chimesFF: 	5 3 6 0.78926
chimesFF: 	5 6 3 0.78926
chimesFF: 	7 0 4 -0.04510
chimesFF: 	7 4 0 -0.04510
chimesFF: 	7 3 4 0.15260
chimesFF: 	7 4 3 0.15260
chimesFF: 	7 3 6 -0.41131
chimesFF: 	7 6 3 -0.41131
chimesFF: Read 3B parameters for triplet: 3 Al Al N
chimesFF: Read 3B parameters for triplet: 4 Al Al O
chimesFF: 	0 3 4 -4.48919
chimesFF: 	0 4 3 -4.48919
chimesFF: 	0 3 7 1.12258
chimesFF: 	0 7 3 1.12258
chimesFF: 	0 4 5 1.22906
chimesFF: 	0 5 4 1.22906
chimesFF: 	2 3 4 0.04504
chimesFF: 	2 4 3 0.04504
chimesFF: 	2 5 7 1.51396
chimesFF: 	2 7 5 1.51396
chimesFF: 	4 5 7 -0.79415
chimesFF: 	4 7 5 -0.79415
chimesFF: 	6 0 6 -0.43793
chimesFF: 	6 6 0 -0.43793
chimesFF: 	6 3 7 -0.50801
chimesFF: 	6 7 3 -0.50801
chimesFF: 	7 4 7 0.19867
chimesFF: 	7 7 4 0.19867
chimesFF: Read 3B parameters for triplet: 5 Al C C
chimesFF: 	0 6 7 -1.28548
chimesFF: 	6 0 7 -1.28548
chimesFF: Read 3B parameters for triplet: 6 Al C H
chimesFF: 	3 0 3 -1.82798
chimesFF: 	3 2 0 9.60983
chimesFF: 	6 0 3 1.72628
chimesFF: 	6 0 4 -0.60475
chimesFF: 	6 4 7 -0.63814
chimesFF: 	6 7 0 1.37502
chimesFF: Read 3B parameters for triplet: 7 Al C N
chimesFF: Read 3B parameters for triplet: 8 Al C O
chimesFF: 	0 1 6 2.35960
chimesFF: 	0 3 5 1.91511
chimesFF: 	0 3 6 -0.66477
chimesFF: 	0 3 7 -2.63363
chimesFF: 	0 5 3 1.86514
chimesFF: 	0 6 4 -1.93231
chimesFF: 	0 7 4 -1.25729
chimesFF: 	1 0 4 -5.80619
chimesFF: 	3 0 4 1.98588
chimesFF: 	3 0 7 -1.82184
chimesFF: 	3 5 6 2.72352
chimesFF: 	3 6 6 0.59329
chimesFF: 	3 7 5 0.24053
chimesFF: 	3 7 7 -0.44323
chimesFF: 	4 0 7 0.04693
chimesFF: 	4 6 6 1.93229
chimesFF: 	4 6 7 2.92216
chimesFF: 	4 7 0 0.77107
chimesFF: 	5 0 6 1.59721
chimesFF: 	5 6 3 0.79240
chimesFF: 	5 7 4 -0.99613
chimesFF: 	6 0 4 2.12321
chimesFF: 	6 0 7 -0.07796
chimesFF: 	6 3 6 -0.79362
chimesFF: 	6 3 7 -0.35958
chimesFF: 	6 5 0 0.06238
chimesFF: 	6 6 0 -2.72874
chimesFF: 	6 6 1 -0.56129
chimesFF: 	6 6 3 0.23060
chimesFF: 	6 7 4 -0.91332
chimesFF: 	6 7 5 -1.01566
chimesFF: 	6 7 7 0.48476
chimesFF: 	7 0 4 0.49703
chimesFF: 	7 3 4 -0.50012
chimesFF: 	7 4 0 0.55109
chimesFF: 	7 4 7 -1.62852
chimesFF: 	7 5 0 0.29011
chimesFF: 	7 5 3 -1.53537
chimesFF: 	7 6 5 1.05094
chimesFF: 	7 7 1 -0.42177
chimesFF: 	7 7 3 0.49814
chimesFF: 	7 7 6 -0.07833
chimesFF: Read 3B parameters for triplet: 9 Al H H
chimesFF: 	0 7 1 -0.78357
chimesFF: 	7 0 1 -0.78357
chimesFF: 	2 3 0 0.80943
chimesFF: 	3 2 0 0.80943
chimesFF: 	2 6 0 -0.34758
chimesFF: 	6 2 0 -0.34758
chimesFF: 	3 7 0 0.39341
chimesFF: 	7 3 0 0.39341
chimesFF: 	4 6 4 -0.95795
chimesFF: 	6 4 4 -0.95795
chimesFF: 	5 7 0 -0.34897
chimesFF: 	7 5 0 -0.34897
chimesFF: 	6 7 1 -0.61140
chimesFF: 	7 6 1 -0.61140
chimesFF: Read 3B parameters for triplet: 10 Al H N
chimesFF: Read 3B parameters for triplet: 11 Al H O
chimesFF: 	0 2 4 0.47698
chimesFF: 	0 3 4 1.32157
chimesFF: 	0 3 7 0.07544
chimesFF: 	0 4 5 -1.13204
chimesFF: 	0 5 2 1.83900
chimesFF: 	0 6 4 0.20026
chimesFF: 	0 6 6 -0.32157
chimesFF: 	0 7 3 0.10886
chimesFF: 	0 7 6 0.31753
chimesFF: 	0 7 7 0.02843
chimesFF: 	2 0 7 0.11316
chimesFF: 	2 3 0 -0.89018
chimesFF: 	2 6 7 -0.35843
chimesFF: 	3 0 3 -0.66027
chimesFF: 	3 0 7 0.76773
chimesFF: 	3 5 5 0.78131
chimesFF: 	3 5 7 1.56706
chimesFF: 	3 6 2 -3.58793
chimesFF: 	3 6 3 -0.31869
chimesFF: 	3 7 3 -0.54564
chimesFF: 	3 7 7 -0.06035
chimesFF: 	4 0 6 0.51836
chimesFF: 	4 6 7 0.36889
chimesFF: 	4 7 3 -0.66412
chimesFF: 	5 0 3 0.04991
chimesFF: 	5 0 5 -0.65684
chimesFF: 	5 3 0 0.24729
chimesFF: 	5 3 4 0.55687
chimesFF: 	5 4 4 0.90141
chimesFF: 	5 5 5 -0.84171
chimesFF: 	6 0 3 0.01133
chimesFF: 	6 0 6 -0.29747
chimesFF: 	6 3 3 -0.46814
chimesFF: 	6 3 5 0.95941
chimesFF: 	6 4 0 0.20737
chimesFF: 	6 5 6 -0.55453
chimesFF: 	6 5 7 -0.45236
chimesFF: 	6 6 0 -0.13342
chimesFF: 	6 7 1 -0.07523
chimesFF: 	6 7 3 0.23864
chimesFF: 	6 7 7 0.23424
chimesFF: 	7 0 6 -0.12025
chimesFF: 	7 3 4 -0.07182
chimesFF: 	7 3 6 0.29878
chimesFF: 	7 4 0 0.69466
chimesFF: 	7 4 4 -0.36763
chimesFF: 	7 5 3 -1.14889
chimesFF: 	7 5 6 -0.35257
chimesFF: 	7 6 7 -0.64173
chimesFF: 	7 7 3 0.30886
chimesFF: 	7 7 4 0.03914
chimesFF: 	7 7 6 0.16483
chimesFF: 	7 7 7 0.36009
chimesFF: Read 3B parameters for triplet: 12 Al N N
chimesFF: Read 3B parameters for triplet: 13 Al N O
chimesFF: Read 3B parameters for triplet: 14 Al O O
chimesFF: 	0 1 3 -2.46398
chimesFF: 	1 0 3 -2.46398
chimesFF: 	0 2 6 0.82282
chimesFF: 	2 0 6 0.82282
chimesFF: 	0 3 4 -2.68125
chimesFF: 	3 0 4 -2.68125
chimesFF: 	0 4 3 3.49758
chimesFF: 	4 0 3 3.49758
chimesFF: 	0 4 6 1.18922
chimesFF: 	4 0 6 1.18922
chimesFF: 	0 4 7 -0.37656
chimesFF: 	4 0 7 -0.37656
chimesFF: 	0 5 3 0.04466
chimesFF: 	5 0 3 0.04466
chimesFF: 	0 7 2 0.20063
chimesFF: 	7 0 2 0.20063
chimesFF: 	0 7 4 -0.60989
chimesFF: 	7 0 4 -0.60989
chimesFF: 	0 7 6 0.73021
chimesFF: 	7 0 6 0.73021
chimesFF: 	1 3 5 0.56939
chimesFF: 	3 1 5 0.56939
chimesFF: 	1 5 0 -2.79067
chimesFF: 	5 1 0 -2.79067
chimesFF: 	2 3 0 -3.24812
chimesFF: 	3 2 0 -3.24812
chimesFF: 	3 4 2 -1.62080
chimesFF: 	4 3 2 -1.62080
chimesFF: 	3 5 6 -0.33244
chimesFF: 	5 3 6 -0.33244
chimesFF: 	3 5 7 -0.20708
chimesFF: 	5 3 7 -0.20708
chimesFF: 	3 6 7 0.43552
chimesFF: 	6 3 7 0.43552
chimesFF: 	3 7 4 -0.37039
chimesFF: 	7 3 4 -0.37039
chimesFF: 	4 5 2 1.76197
chimesFF: 	5 4 2 1.76197
chimesFF: 	4 5 4 -0.32448
chimesFF: 	5 4 4 -0.32448
chimesFF: 	4 7 3 0.06593
chimesFF: 	7 4 3 0.06593
chimesFF: 	5 5 6 0.45267
chimesFF: 	5 6 2 -0.22958
chimesFF: 	6 5 2 -0.22958
chimesFF: 	5 7 7 -0.08973
chimesFF: 	7 5 7 -0.08973
chimesFF: 	6 7 4 -0.25742
chimesFF: 	7 6 4 -0.25742
chimesFF: Read 3B parameters for triplet: 15 C C C
chimesFF: 	0 2 2 0.15590
chimesFF: 	2 0 2 0.15590
chimesFF: 	2 2 0 0.15590
chimesFF: 	0 2 4 -7.75021
chimesFF: 	2 0 4 -7.75021
chimesFF: 	0 4 2 -7.75021
chimesFF: 	4 0 2 -7.75021
chimesFF: 	2 4 0 -7.75021
chimesFF: 	4 2 0 -7.75021
chimesFF: 	0 2 7 1.77607
chimesFF: 	2 0 7 1.77607
chimesFF: 	0 7 2 1.77607
chimesFF: 	7 0 2 1.77607
chimesFF: 	2 7 0 1.77607
chimesFF: 	7 2 0 1.77607
chimesFF: 	0 3 3 0.96497
chimesFF: 	3 0 3 0.96497
chimesFF: 	3 3 0 0.96497
chimesFF: 	0 3 5 -0.57287
chimesFF: 	3 0 5 -0.57287
chimesFF: 	0 5 3 -0.57287
chimesFF: 	5 0 3 -0.57287
chimesFF: 	3 5 0 -0.57287
chimesFF: 	5 3 0 -0.57287
chimesFF: 	0 5 6 0.20665
chimesFF: 	5 0 6 0.20665
chimesFF: 	0 6 5 0.20665
chimesFF: 	6 0 5 0.20665
chimesFF: 	5 6 0 0.20665
chimesFF: 	6 5 0 0.20665
chimesFF: 	0 7 7 -0.61537
chimesFF: 	7 0 7 -0.61537
chimesFF: 	7 7 0 -0.61537
chimesFF: 	1 3 5 -4.45303
chimesFF: 	3 1 5 -4.45303
chimesFF: 	1 5 3 -4.45303
chimesFF: 	5 1 3 -4.45303
chimesFF: 	3 5 1 -4.45303
chimesFF: 	5 3 1 -4.45303
chimesFF: 	1 7 7 -0.25020
chimesFF: 	7 1 7 -0.25020
chimesFF: 	7 7 1 -0.25020
chimesFF: 	2 3 4 -3.49013
chimesFF: 	3 2 4 -3.49013
chimesFF: 	2 4 3 -3.49013
chimesFF: 	4 2 3 -3.49013
chimesFF: 	3 4 2 -3.49013
chimesFF: 	4 3 2 -3.49013
chimesFF: 	2 3 5 4.16681
chimesFF: 	3 2 5 4.16681
chimesFF: 	2 5 3 4.16681
chimesFF: 	5 2 3 4.16681
chimesFF: 	3 5 2 4.16681
chimesFF: 	5 3 2 4.16681
chimesFF: 	2 4 6 -0.14605
chimesFF: 	4 2 6 -0.14605
chimesFF: 	2 6 4 -0.14605
chimesFF: 	6 2 4 -0.14605
chimesFF: 	4 6 2 -0.14605
chimesFF: 	6 4 2 -0.14605
chimesFF: 	2 5 7 -1.21670
chimesFF: 	5 2 7 -1.21670
chimesFF: 	2 7 5 -1.21670
chimesFF: 	7 2 5 -1.21670
chimesFF: 	5 7 2 -1.21670
chimesFF: 	7 5 2 -1.21670
chimesFF: 	3 3 5 2.75312
chimesFF: 	3 5 3 2.75312
chimesFF: 	5 3 3 2.75312
chimesFF: 	3 4 6 0.20413
chimesFF: 	4 3 6 0.20413
chimesFF: 	3 6 4 0.20413
chimesFF: 	6 3 4 0.20413
chimesFF: 	4 6 3 0.20413
chimesFF: 	6 4 3 0.20413
chimesFF: 	3 7 7 2.71621
chimesFF: 	7 3 7 2.71621
chimesFF: 	7 7 3 2.71621
chimesFF: 	4 4 7 2.18564
chimesFF: 	4 7 4 2.18564
chimesFF: 	7 4 4 2.18564
chimesFF: 	4 5 6 -1.46270
chimesFF: 	5 4 6 -1.46270
chimesFF: 	4 6 5 -1.46270
chimesFF: 	6 4 5 -1.46270
chimesFF: 	5 6 4 -1.46270
chimesFF: 	6 5 4 -1.46270
chimesFF: 	4 5 7 0.42655
chimesFF: 	5 4 7 0.42655
chimesFF: 	4 7 5 0.42655
chimesFF: 	7 4 5 0.42655
chimesFF: 	5 7 4 0.42655
chimesFF: 	7 5 4 0.42655
chimesFF: 	4 6 7 -0.30756
chimesFF: 	6 4 7 -0.30756
chimesFF: 	4 7 6 -0.30756
chimesFF: 	7 4 6 -0.30756
chimesFF: 	6 7 4 -0.30756
chimesFF: 	7 6 4 -0.30756
chimesFF: 	5 5 6 -1.46739
chimesFF: 	5 6 5 -1.46739
chimesFF: 	6 5 5 -1.46739
chimesFF: 	5 6 7 0.59656
chimesFF: 	6 5 7 0.59656
chimesFF: 	5 7 6 0.59656
chimesFF: 	7 5 6 0.59656
chimesFF: 	6 7 5 0.59656
chimesFF: 	7 6 5 0.59656
chimesFF: 	7 7 7 1.68348
chimesFF: Read 3B parameters for triplet: 16 C C H
chimesFF: 	0 2 4 -1.28121
chimesFF: 	0 4 2 -1.28121
chimesFF: 	0 2 5 0.77649
chimesFF: 	0 5 2 0.77649
chimesFF: 	0 3 4 -0.46258
chimesFF: 	0 4 3 -0.46258
chimesFF: 	0 3 7 -2.20335
chimesFF: 	0 7 3 -2.20335
chimesFF: 	0 4 4 1.81835
chimesFF: 	0 4 6 0.63432
chimesFF: 	0 6 4 0.63432
chimesFF: 	0 5 7 0.01418
chimesFF: 	0 7 5 0.01418
chimesFF: 	0 6 6 -1.69365
chimesFF: 	2 0 5 2.01581
chimesFF: 	2 5 0 2.01581
chimesFF: 	2 0 6 1.49406
chimesFF: 	2 6 0 1.49406
chimesFF: 	2 0 7 -0.65559
chimesFF: 	2 7 0 -0.65559
chimesFF: 	2 4 6 -0.48868
chimesFF: 	2 6 4 -0.48868
chimesFF: 	3 0 4 -3.89500
chimesFF: 	3 4 0 -3.89500
chimesFF: 	3 0 5 0.02159
chimesFF: 	3 5 0 0.02159
chimesFF: 	3 2 7 2.73431
chimesFF: 	3 7 2 2.73431
chimesFF: 	3 3 4 0.46505
chimesFF: 	3 4 3 0.46505
chimesFF: 	3 3 7 2.28225
chimesFF: 	3 7 3 2.28225
chimesFF: 	3 5 7 -3.12679
chimesFF: 	3 7 5 -3.12679
chimesFF: 	3 6 6 1.61035
chimesFF: 	4 1 6 0.04048
chimesFF: 	4 6 1 0.04048
chimesFF: 	4 5 6 -0.40253
chimesFF: 	4 6 5 -0.40253
chimesFF: 	4 6 6 0.57352
chimesFF: 	4 6 7 0.32694
chimesFF: 	4 7 6 0.32694
chimesFF: 	5 1 5 -1.33215
chimesFF: 	5 5 1 -1.33215
chimesFF: 	5 3 4 -1.55631
chimesFF: 	5 4 3 -1.55631
chimesFF: 	5 3 5 1.95496
chimesFF: 	5 5 3 1.95496
chimesFF: 	6 0 1 0.38000
chimesFF: 	6 1 0 0.38000
chimesFF: 	6 0 3 -0.22892
chimesFF: 	6 3 0 -0.22892
chimesFF: 	6 0 4 0.73496
chimesFF: 	6 4 0 0.73496
chimesFF: 	6 0 7 0.19705
chimesFF: 	6 7 0 0.19705
chimesFF: 	6 2 4 -1.21243
chimesFF: 	6 4 2 -1.21243
chimesFF: 	6 5 7 0.21821
chimesFF: 	6 7 5 0.21821
chimesFF: 	6 6 6 -0.02047
chimesFF: 	7 0 2 -0.06482
chimesFF: 	7 2 0 -0.06482
chimesFF: 	7 0 4 -0.98454
chimesFF: 	7 4 0 -0.98454
chimesFF: 	7 0 5 1.67770
chimesFF: 	7 5 0 1.67770
chimesFF: 	7 1 3 0.41517
chimesFF: 	7 3 1 0.41517
chimesFF: 	7 1 5 1.50465
chimesFF: 	7 5 1 1.50465
chimesFF: 	7 1 6 -0.02460
chimesFF: 	7 6 1 -0.02460
chimesFF: 	7 2 6 0.12944
chimesFF: 	7 6 2 0.12944
chimesFF: 	7 3 5 -1.95027
chimesFF: 	7 5 3 -1.95027
chimesFF: 	7 3 7 0.59871
chimesFF: 	7 7 3 0.59871
chimesFF: 	7 4 5 -0.53547
chimesFF: 	7 5 4 -0.53547
chimesFF: 	7 5 7 -1.09900
chimesFF: 	7 7 5 -1.09900
chimesFF: Read 3B parameters for triplet: 17 C C N
chimesFF: 	0 3 5 -5.06001
chimesFF: 	0 5 3 -5.06001
chimesFF: 	0 4 6 0.61449
chimesFF: 	0 6 4 0.61449
chimesFF: 	0 5 7 0.79972
chimesFF: 	0 7 5 0.79972
chimesFF: 	0 6 7 0.09852
chimesFF: 	0 7 6 0.09852
chimesFF: 	2 0 4 -9.97961
chimesFF: 	2 4 0 -9.97961
chimesFF: 	2 0 6 2.00337
chimesFF: 	2 6 0 2.00337
chimesFF: 	2 4 5 3.17806
chimesFF: 	2 5 4 3.17806
chimesFF: 	2 4 6 -1.25576
chimesFF: 	2 6 4 -1.25576
chimesFF: 	3 0 2 -2.34360
chimesFF: 	3 2 0 -2.34360
chimesFF: 	3 0 3 1.56749
chimesFF: 	3 3 0 1.56749
chimesFF: 	3 0 5 -1.69571
chimesFF: 	3 5 0 -1.69571
chimesFF: 	3 5 7 -0.79103
chimesFF: 	3 7 5 -0.79103
chimesFF: 	3 6 6 0.08167
chimesFF: 	3 6 7 -1.43683
chimesFF: 	3 7 6 -1.43683
chimesFF: 	3 7 7 2.41413
chimesFF: 	4 0 7 0.15839
chimesFF: 	4 7 0 0.15839
chimesFF: 	4 6 7 0.52853
chimesFF: 	4 7 6 0.52853
chimesFF: 	5 0 3 -1.04176
chimesFF: 	5 3 0 -1.04176
chimesFF: 	5 3 6 1.47856
chimesFF: 	5 6 3 1.47856
chimesFF: 	5 3 7 1.02134
chimesFF: 	5 7 3 1.02134
chimesFF: 	5 4 7 0.39673
chimesFF: 	5 7 4 0.39673
chimesFF: 	5 6 7 1.28076
chimesFF: 	5 7 6 1.28076
chimesFF: 	6 0 2 0.59634
chimesFF: 	6 2 0 0.59634
chimesFF: 	6 0 3 -0.59687
chimesFF: 	6 3 0 -0.59687
chimesFF: 	6 0 5 1.02751
chimesFF: 	6 5 0 1.02751
chimesFF: 	6 0 6 -0.46031
chimesFF: 	6 6 0 -0.46031
chimesFF: 	6 6 6 -1.94794
chimesFF: 	7 0 2 0.20517
chimesFF: 	7 2 0 0.20517
chimesFF: 	7 0 4 -0.43289
chimesFF: 	7 4 0 -0.43289
chimesFF: 	7 0 7 -0.87562
chimesFF: 	7 7 0 -0.87562
chimesFF: 	7 1 7 -0.48749
chimesFF: 	7 7 1 -0.48749
chimesFF: 	7 3 5 -0.39058
chimesFF: 	7 5 3 -0.39058
chimesFF: 	7 3 6 -2.08490
chimesFF: 	7 6 3 -2.08490
chimesFF: 	7 3 7 3.23958
chimesFF: 	7 7 3 3.23958
chimesFF: 	7 4 5 0.93438
chimesFF: 	7 5 4 0.93438
chimesFF: 	7 4 6 -1.08968
chimesFF: 	7 6 4 -1.08968
chimesFF: Read 3B parameters for triplet: 18 C C O
chimesFF: 	0 2 3 14.16043
chimesFF: 	0 3 2 14.16043
chimesFF: 	0 3 5 -0.29802
chimesFF: 	0 5 3 -0.29802
chimesFF: 	0 3 7 -0.58383
chimesFF: 	0 7 3 -0.58383
chimesFF: 	0 4 5 -0.43315
chimesFF: 	0 5 4 -0.43315
chimesFF: 	0 6 6 -3.30413
chimesFF: 	0 6 7 -2.53504
chimesFF: 	0 7 6 -2.53504
chimesFF: 	2 0 2 9.52954
chimesFF: 	2 2 0 9.52954
chimesFF: 	2 0 7 -3.48444
chimesFF: 	2 7 0 -3.48444
chimesFF: 	2 3 7 0.84466
chimesFF: 	2 7 3 0.84466
chimesFF: 	3 0 4 -10.21841
chimesFF: 	3 4 0 -10.21841
chimesFF: 	3 0 7 -1.41030
chimesFF: 	3 7 0 -1.41030
chimesFF: 	3 1 4 -6.65119
chimesFF: 	3 4 1 -6.65119
chimesFF: 	3 2 3 -6.82244
chimesFF: 	3 3 2 -6.82244
chimesFF: 	3 2 4 1.97217
chimesFF: 	3 4 2 1.97217
chimesFF: 	3 2 6 -4.88189
chimesFF: 	3 6 2 -4.88189
chimesFF: 	3 3 6 -6.70382
chimesFF: 	3 6 3 -6.70382
chimesFF: 	3 6 6 2.24339
chimesFF: 	3 6 7 0.45485
chimesFF: 	3 7 6 0.45485
chimesFF: 	3 7 7 -1.13361
chimesFF: 	4 0 5 -1.59910
chimesFF: 	4 5 0 -1.59910
chimesFF: 	4 1 3 -5.83651
chimesFF: 	4 3 1 -5.83651
chimesFF: 	4 1 6 1.73086
chimesFF: 	4 6 1 1.73086
chimesFF: 	4 2 4 2.99055
chimesFF: 	4 4 2 2.99055
chimesFF: 	4 3 4 1.39479
chimesFF: 	4 4 3 1.39479
chimesFF: 	4 3 5 1.11868
chimesFF: 	4 5 3 1.11868
chimesFF: 	4 3 6 -1.90295
chimesFF: 	4 6 3 -1.90295
chimesFF: 	4 5 5 -1.17156
chimesFF: 	4 5 7 0.66741
chimesFF: 	4 7 5 0.66741
chimesFF: 	4 6 6 0.74570
chimesFF: 	4 7 7 1.82545
chimesFF: 	5 1 4 2.48374
chimesFF: 	5 4 1 2.48374
chimesFF: 	5 4 7 -0.09024
chimesFF: 	5 7 4 -0.09024
chimesFF: 	5 5 6 0.71970
chimesFF: 	5 6 5 0.71970
chimesFF: 	5 5 7 0.59552
chimesFF: 	5 7 5 0.59552
chimesFF: 	5 6 7 -0.37700
chimesFF: 	5 7 6 -0.37700
chimesFF: 	6 0 4 2.27573
chimesFF: 	6 4 0 2.27573
chimesFF: 	6 0 5 2.38137
chimesFF: 	6 5 0 2.38137
chimesFF: 	6 0 7 -0.45412
chimesFF: 	6 7 0 -0.45412
chimesFF: 	6 1 7 0.40730
chimesFF: 	6 7 1 0.40730
chimesFF: 	6 2 5 -1.00425
chimesFF: 	6 5 2 -1.00425
chimesFF: 	6 3 4 -2.55396
chimesFF: 	6 4 3 -2.55396
chimesFF: 	6 4 5 0.51411
chimesFF: 	6 5 4 0.51411
chimesFF: 	6 4 6 1.56836
chimesFF: 	6 6 4 1.56836
chimesFF: 	6 5 5 1.86348
chimesFF: 	6 5 6 0.65540
chimesFF: 	6 6 5 0.65540
chimesFF: 	6 5 7 -0.33346
chimesFF: 	6 7 5 -0.33346
chimesFF: 	6 7 7 -0.66030
chimesFF: 	7 0 2 2.02420
chimesFF: 	7 2 0 2.02420
chimesFF: 	7 0 4 -1.68735
chimesFF: 	7 4 0 -1.68735
chimesFF: 	7 0 6 -1.36884
chimesFF: 	7 6 0 -1.36884
chimesFF: 	7 0 7 -0.67834
chimesFF: 	7 7 0 -0.67834
chimesFF: 	7 1 3 0.07576
chimesFF: 	7 3 1 0.07576
chimesFF: 	7 2 3 -7.36638
chimesFF: 	7 3 2 -7.36638
chimesFF: 	7 2 4 2.30573
chimesFF: 	7 4 2 2.30573
chimesFF: 	7 2 6 1.56769
chimesFF: 	7 6 2 1.56769
chimesFF: 	7 3 6 1.76842
chimesFF: 	7 6 3 1.76842
chimesFF: 	7 4 6 -0.43220
chimesFF: 	7 6 4 -0.43220
chimesFF: 	7 5 6 -0.13323
chimesFF: 	7 6 5 -0.13323
chimesFF: 	7 5 7 -0.28426
chimesFF: 	7 7 5 -0.28426
chimesFF: 	7 7 7 0.07174
chimesFF: Read 3B parameters for triplet: 19 C H H
chimesFF: 	0 1 1 2.55661
chimesFF: 	1 0 1 2.55661
chimesFF: 	0 1 7 -0.04451
chimesFF: 	1 0 7 -0.04451
chimesFF: 	0 2 5 1.76921
chimesFF: 	2 0 5 1.76921
chimesFF: 	0 3 5 2.43774
chimesFF: 	3 0 5 2.43774
chimesFF: 	0 4 1 -0.30435
chimesFF: 	4 0 1 -0.30435
chimesFF: 	0 4 5 1.21620
chimesFF: 	4 0 5 1.21620
chimesFF: 	0 4 7 -0.46087
chimesFF: 	4 0 7 -0.46087
chimesFF: 	0 5 5 -0.28355
chimesFF: 	5 0 5 -0.28355
chimesFF: 	0 6 4 0.70790
chimesFF: 	6 0 4 0.70790
chimesFF: 	0 7 1 0.25344
chimesFF: 	7 0 1 0.25344
chimesFF: 	0 7 4 0.45590
chimesFF: 	7 0 4 0.45590
chimesFF: 	1 3 6 -2.31786
chimesFF: 	3 1 6 -2.31786
chimesFF: 	1 4 2 -0.15130
chimesFF: 	4 1 2 -0.15130
chimesFF: 	1 6 0 -0.29051
chimesFF: 	6 1 0 -0.29051
chimesFF: 	1 6 5 -0.31838
chimesFF: 	6 1 5 -0.31838
chimesFF: 	2 3 6 0.99098
chimesFF: 	3 2 6 0.99098
chimesFF: 	2 4 3 -0.07965
chimesFF: 	4 2 3 -0.07965
chimesFF: 	2 7 4 -1.05604
chimesFF: 	7 2 4 -1.05604
chimesFF: 	3 4 0 0.65295
chimesFF: 	4 3 0 0.65295
chimesFF: 	3 4 6 -0.11744
chimesFF: 	4 3 6 -0.11744
chimesFF: 	3 4 7 0.21431
chimesFF: 	4 3 7 0.21431
chimesFF: 	3 5 3 -0.68460
chimesFF: 	5 3 3 -0.68460
chimesFF: 	3 5 6 -0.38221
chimesFF: 	5 3 6 -0.38221
chimesFF: 	3 6 5 0.49623
chimesFF: 	6 3 5 0.49623
chimesFF: 	3 7 0 0.48682
chimesFF: 	7 3 0 0.48682
chimesFF: 	3 7 4 -1.87798
chimesFF: 	7 3 4 -1.87798
chimesFF: 	3 7 7 -0.54863
chimesFF: 	7 3 7 -0.54863
chimesFF: 	4 6 0 0.20858
chimesFF: 	6 4 0 0.20858
chimesFF: 	5 7 7 0.01124
chimesFF: 	7 5 7 0.01124
chimesFF: 	6 7 3 -0.36859
chimesFF: 	7 6 3 -0.36859
chimesFF: 	6 7 7 0.08211
chimesFF: 	7 6 7 0.08211
chimesFF: 	7 7 7 -0.53543
chimesFF: Read 3B parameters for triplet: 20 C H N
chimesFF: 	0 2 2 -2.99809
chimesFF: 	0 2 3 -2.92831
chimesFF: 	0 2 4 1.18764
chimesFF: 	0 4 1 -0.79095
chimesFF: 	0 5 1 -0.34688
chimesFF: 	0 5 3 1.86501
chimesFF: 	0 6 1 2.12092
chimesFF: 	0 6 3 -4.80946
chimesFF: 	0 6 5 0.47711
chimesFF: 	0 6 6 -0.10524
chimesFF: 	0 7 7 0.25497
chimesFF: 	1 0 2 -4.58791
chimesFF: 	1 6 5 -1.27219
chimesFF: 	1 7 0 -1.32907
chimesFF: 	1 7 6 -0.27237
chimesFF: 	3 0 6 -0.63196
chimesFF: 	3 5 0 0.93976
chimesFF: 	3 7 2 -0.24507
chimesFF: 	4 0 5 0.00819
chimesFF: 	4 2 5 -1.35531
chimesFF: 	4 5 3 -0.27386
chimesFF: 	4 6 4 0.87646
chimesFF: 	4 6 7 -0.98576
chimesFF: 	4 7 0 -0.90410
chimesFF: 	4 7 6 -0.22839
chimesFF: 	4 7 7 -0.98080
chimesFF: 	5 2 0 0.70324
chimesFF: 	5 3 3 6.45889
chimesFF: 	5 3 5 -1.59145
chimesFF: 	5 3 6 -0.25990
chimesFF: 	5 4 0 -1.17748
chimesFF: 	5 4 2 2.52501
chimesFF: 	5 4 3 1.99138
chimesFF: 	5 6 1 2.50206
chimesFF: 	5 6 4 -1.12208
chimesFF: 	5 6 7 0.39630
chimesFF: 	5 7 1 1.16857
chimesFF: 	5 7 6 0.61950
chimesFF: 	6 0 5 -0.65318
chimesFF: 	6 1 5 -0.67485
chimesFF: 	6 3 3 -1.81232
chimesFF: 	6 3 5 1.14753
chimesFF: 	6 4 7 -0.40839
chimesFF: 	6 5 7 -0.23298
chimesFF: 	6 6 0 -5.91470
chimesFF: 	6 6 1 -2.57749
chimesFF: 	6 6 6 -1.07719
chimesFF: 	6 7 0 0.29282
chimesFF: 	7 0 3 0.23640
chimesFF: 	7 0 6 -0.74056
chimesFF: 	7 3 4 -3.61148
chimesFF: 	7 4 6 0.61235
chimesFF: 	7 4 7 0.86137
chimesFF: 	7 5 2 -0.57085
chimesFF: 	7 6 3 -1.86789
chimesFF: 	7 6 5 1.14533
chimesFF: 	7 7 5 -0.34639
chimesFF: Read 3B parameters for triplet: 21 C H O
chimesFF: 	0 2 1 1.77963
chimesFF: 	0 2 5 1.04333
chimesFF: 	0 2 7 -3.85899
chimesFF: 	0 3 2 3.38425
chimesFF: 	0 3 6 -0.21697
chimesFF: 	0 4 2 2.15437
chimesFF: 	0 5 3 -0.09533
chimesFF: 	0 5 7 0.68458
chimesFF: 	0 6 2 -2.06816
chimesFF: 	0 6 5 1.26821
chimesFF: 	0 6 7 0.08435
chimesFF: 	0 7 5 1.24983
chimesFF: 	0 7 7 0.56862
chimesFF: 	1 3 7 -0.06086
chimesFF: 	1 6 0 -0.34332
chimesFF: 	1 6 2 0.71763
chimesFF: 	1 7 3 -0.72471
chimesFF: 	2 0 5 0.61008
chimesFF: 	2 0 6 -2.82752
chimesFF: 	2 2 7 1.69414
chimesFF: 	2 3 2 -1.10779
chimesFF: 	2 3 4 3.08759
chimesFF: 	2 5 0 0.08539
chimesFF: 	2 6 3 0.73393
chimesFF: 	2 7 3 2.59495
chimesFF: 	3 0 1 -0.25751
chimesFF: 	3 0 5 1.37372
chimesFF: 	3 0 7 -0.76647
chimesFF: 	3 2 5 -0.79151
chimesFF: 	3 2 7 6.00450
chimesFF: 	3 3 0 -0.88942
chimesFF: 	3 3 6 -0.10210
chimesFF: 	3 3 7 1.33988
chimesFF: 	3 4 0 -0.67129
chimesFF: 	3 4 2 4.83195
chimesFF: 	3 5 4 -1.31279
chimesFF: 	3 5 5 0.00433
chimesFF: 	3 6 4 1.66603
chimesFF: 	3 6 6 1.25020
chimesFF: 	3 7 0 0.13477
chimesFF: 	3 7 2 -2.53771
chimesFF: 	3 7 5 -0.45817
chimesFF: 	3 7 6 0.23364
chimesFF: 	3 7 7 0.22970
chimesFF: 	4 2 5 1.32247
chimesFF: 	4 3 1 -0.09393
chimesFF: 	4 3 5 1.52107
chimesFF: 	4 3 6 -0.72237
chimesFF: 	4 4 5 -0.21933
chimesFF: 	4 4 7 -0.73243
chimesFF: 	4 6 0 -0.67377
chimesFF: 	4 7 3 -0.02426
chimesFF: 	4 7 5 0.58098
chimesFF: 	5 2 4 -0.84876
chimesFF: 	5 2 5 1.96921
chimesFF: 	5 3 4 -1.19148
chimesFF: 	5 4 4 0.20074
chimesFF: 	5 4 7 0.23684
chimesFF: 	5 5 4 1.06700
chimesFF: 	5 6 3 0.32537
chimesFF: 	5 6 6 -0.42107
chimesFF: 	5 7 0 -0.07850
chimesFF: 	5 7 2 0.58185
chimesFF: 	6 0 4 1.14421
chimesFF: 	6 0 6 -0.04659
chimesFF: 	6 0 7 0.88041
chimesFF: 	6 2 7 -1.87462
chimesFF: 	6 3 5 -0.34028
chimesFF: 	6 3 6 0.04836
chimesFF: 	6 3 7 -0.75899
chimesFF: 	6 4 0 -0.02625
chimesFF: 	6 5 2 0.90043
chimesFF: 	6 5 5 0.97921
chimesFF: 	6 5 6 -0.45587
chimesFF: 	6 6 0 0.80026
chimesFF: 	6 6 3 -0.25918
chimesFF: 	6 6 5 0.29682
chimesFF: 	6 7 4 -0.63735
chimesFF: 	7 0 3 0.24634
chimesFF: 	7 0 5 0.14533
chimesFF: 	7 0 6 -1.63017
chimesFF: 	7 1 0 -1.21582
chimesFF: 	7 1 6 -2.48270
chimesFF: 	7 2 4 0.88414
chimesFF: 	7 2 6 0.34413
chimesFF: 	7 3 0 0.39089
chimesFF: 	7 3 4 0.22708
chimesFF: 	7 3 7 -0.19956
chimesFF: 	7 4 3 0.55896
chimesFF: 	7 4 6 -0.01180
chimesFF: 	7 5 4 -0.35903
chimesFF: 	7 6 0 -0.09843
chimesFF: 	7 6 6 0.30233
chimesFF: 	7 6 7 -0.72427
chimesFF: 	7 7 6 0.39133
chimesFF: Read 3B parameters for triplet: 22 C N N
chimesFF: 	0 2 3 -1.79864
chimesFF: 	2 0 3 -1.79864
chimesFF: 	0 2 6 3.52031
chimesFF: 	2 0 6 3.52031
chimesFF: 	0 2 7 2.55151
chimesFF: 	2 0 7 2.55151
chimesFF: 	0 5 4 -0.13454
chimesFF: 	5 0 4 -0.13454
chimesFF: 	0 5 6 2.46070
chimesFF: 	5 0 6 2.46070
chimesFF: 	0 7 3 1.25764
chimesFF: 	7 0 3 1.25764
chimesFF: 	1 6 3 -6.07828
chimesFF: 	6 1 3 -6.07828
chimesFF: 	2 4 5 -1.10806
chimesFF: 	4 2 5 -1.10806
chimesFF: 	3 5 0 -3.11366
chimesFF: 	5 3 0 -3.11366
chimesFF: 	3 6 0 -1.70093
chimesFF: 	6 3 0 -1.70093
chimesFF: 	3 6 3 2.33439
chimesFF: 	6 3 3 2.33439
chimesFF: 	3 7 7 0.88683
chimesFF: 	7 3 7 0.88683
chimesFF: 	4 6 0 -2.64023
chimesFF: 	6 4 0 -2.64023
chimesFF: 	5 6 5 -0.03488
chimesFF: 	6 5 5 -0.03488
chimesFF: 	5 6 6 -0.13907
chimesFF: 	6 5 6 -0.13907
chimesFF: 	5 7 0 1.11431
chimesFF: 	7 5 0 1.11431
chimesFF: 	6 6 0 -0.52204
chimesFF: 	6 6 6 -0.03177
chimesFF: 	6 7 0 0.78619
chimesFF: 	7 6 0 0.78619
chimesFF: 	7 7 7 0.09636
chimesFF: Read 3B parameters for triplet: 23 C N O
chimesFF: 	0 2 6 1.17256
chimesFF: 	0 7 5 0.04833
chimesFF: 	2 6 0 -0.61734
chimesFF: 	2 7 0 0.68569
chimesFF: 	2 7 5 -1.08946
chimesFF: 	3 5 7 -2.00945
chimesFF: 	3 6 7 1.16829
chimesFF: 	4 0 3 3.52845
chimesFF: 	4 2 0 -2.04468
chimesFF: 	4 2 5 0.42837
chimesFF: 	4 4 6 2.37777
chimesFF: 	4 6 0 2.03640
chimesFF: 	4 6 7 0.55665
chimesFF: 	5 6 0 1.76094
chimesFF: 	6 3 0 -1.54070
chimesFF: 	6 4 6 -1.55310
chimesFF: 	6 5 0 0.32479
chimesFF: 	6 5 2 -2.84207
chimesFF: 	6 5 5 -0.14528
chimesFF: 	6 7 6 -0.15126
chimesFF: 	6 7 7 0.57176
chimesFF: 	7 3 0 0.24519
chimesFF: 	7 6 5 0.99644
chimesFF: 	7 7 3 0.07300
chimesFF: 	7 7 7 -0.83203
chimesFF: Read 3B parameters for triplet: 24 C O O
chimesFF: 	0 1 4 0.98336
chimesFF: 	1 0 4 0.98336
chimesFF: 	0 2 3 8.10480
chimesFF: 	2 0 3 8.10480
chimesFF: 	0 2 5 -2.21369
chimesFF: 	2 0 5 -2.21369
chimesFF: 	0 2 6 4.53525
chimesFF: 	2 0 6 4.53525
chimesFF: 	0 3 3 10.70097
chimesFF: 	3 0 3 10.70097
chimesFF: 	0 3 5 -7.05220
chimesFF: 	3 0 5 -7.05220
chimesFF: 	0 3 7 1.25728
chimesFF: 	3 0 7 1.25728
chimesFF: 	0 4 5 -6.12200
chimesFF: 	4 0 5 -6.12200
chimesFF: 	0 4 7 0.17433
chimesFF: 	4 0 7 0.17433
chimesFF: 	0 6 6 0.11878
chimesFF: 	6 0 6 0.11878
chimesFF: 	0 6 7 -1.54676
chimesFF: 	6 0 7 -1.54676
chimesFF: 	0 7 3 0.04165
chimesFF: 	7 0 3 0.04165
chimesFF: 	0 7 5 -0.38255
chimesFF: 	7 0 5 -0.38255
chimesFF: 	0 7 6 0.57066
chimesFF: 	7 0 6 0.57066
chimesFF: 	1 2 4 -0.01566
chimesFF: 	2 1 4 -0.01566
chimesFF: 	1 2 6 1.23974
chimesFF: 	2 1 6 1.23974
chimesFF: 	1 3 6 1.46972
chimesFF: 	3 1 6 1.46972
chimesFF: 	1 3 7 0.70266
chimesFF: 	3 1 7 0.70266
chimesFF: 	1 4 3 -9.94733
chimesFF: 	4 1 3 -9.94733
chimesFF: 	1 4 6 -0.19074
chimesFF: 	4 1 6 -0.19074
chimesFF: 	2 4 5 1.65985
chimesFF: 	4 2 5 1.65985
chimesFF: 	2 5 4 0.02637
chimesFF: 	5 2 4 0.02637
chimesFF: 	2 6 0 -0.38146
chimesFF: 	6 2 0 -0.38146
chimesFF: 	3 3 7 -1.31297
chimesFF: 	3 4 6 1.90815
chimesFF: 	4 3 6 1.90815
chimesFF: 	3 4 7 -1.03619
chimesFF: 	4 3 7 -1.03619
chimesFF: 	3 5 4 -1.20105
chimesFF: 	5 3 4 -1.20105
chimesFF: 	3 5 6 3.71352
chimesFF: 	5 3 6 3.71352
chimesFF: 	3 6 0 0.78320
chimesFF: 	6 3 0 0.78320
chimesFF: 	3 6 3 1.27108
chimesFF: 	6 3 3 1.27108
chimesFF: 	3 6 7 3.37058
chimesFF: 	6 3 7 3.37058
chimesFF: 	3 7 0 -0.42457
chimesFF: 	7 3 0 -0.42457
chimesFF: 	3 7 6 -0.39201
chimesFF: 	7 3 6 -0.39201
chimesFF: 	3 7 7 0.51484
chimesFF: 	7 3 7 0.51484
chimesFF: 	4 6 4 0.95701
chimesFF: 	6 4 4 0.95701
chimesFF: 	4 6 6 -2.50935
chimesFF: 	6 4 6 -2.50935
chimesFF: 	4 6 7 0.64949
chimesFF: 	6 4 7 0.64949
chimesFF: 	5 6 0 -0.45317
chimesFF: 	6 5 0 -0.45317
chimesFF: 	5 6 2 0.77891
chimesFF: 	6 5 2 0.77891
chimesFF: 	5 7 4 0.14689
chimesFF: 	7 5 4 0.14689
chimesFF: 	5 7 6 -0.13925
chimesFF: 	7 5 6 -0.13925
chimesFF: 	5 7 7 -2.58962
chimesFF: 	7 5 7 -2.58962
chimesFF: 	6 6 0 0.26952
chimesFF: 	6 6 7 -0.85779
chimesFF: 	6 7 0 0.59231
chimesFF: 	7 6 0 0.59231
chimesFF: 	6 7 3 0.77217
chimesFF: 	7 6 3 0.77217
chimesFF: 	6 7 5 -0.59791
chimesFF: 	7 6 5 -0.59791
chimesFF: 	6 7 6 0.80935
chimesFF: 	7 6 6 0.80935
chimesFF: 	7 7 0 0.23144
chimesFF: 	7 7 5 -0.16272
chimesFF: 	7 7 6 0.42957
chimesFF: Read 3B parameters for triplet: 25 H H H
chimesFF: 	0 1 1 0.60640
chimesFF: 	1 0 1 0.60640
chimesFF: 	1 1 0 0.60640
chimesFF: 	0 1 2 -0.05699
chimesFF: 	1 0 2 -0.05699
chimesFF: 	0 2 1 -0.05699
chimesFF: 	2 0 1 -0.05699
chimesFF: 	1 2 0 -0.05699
chimesFF: 	2 1 0 -0.05699
chimesFF: 	0 1 3 -1.38187
chimesFF: 	1 0 3 -1.38187
chimesFF: 	0 3 1 -1.38187
chimesFF: 	3 0 1 -1.38187
chimesFF: 	1 3 0 -1.38187
chimesFF: 	3 1 0 -1.38187
chimesFF: 	0 1 5 0.56353
chimesFF: 	1 0 5 0.56353
chimesFF: 	0 5 1 0.56353
chimesFF: 	5 0 1 0.56353
chimesFF: 	1 5 0 0.56353
chimesFF: 	5 1 0 0.56353
chimesFF: 	0 1 6 -0.01344
chimesFF: 	1 0 6 -0.01344
chimesFF: 	0 6 1 -0.01344
chimesFF: 	6 0 1 -0.01344
chimesFF: 	1 6 0 -0.01344
chimesFF: 	6 1 0 -0.01344
chimesFF: 	0 1 7 -0.20413
chimesFF: 	1 0 7 -0.20413
chimesFF: 	0 7 1 -0.20413
chimesFF: 	7 0 1 -0.20413
chimesFF: 	1 7 0 -0.20413
chimesFF: 	7 1 0 -0.20413
chimesFF: 	0 2 3 -0.15802
chimesFF: 	2 0 3 -0.15802
chimesFF: 	0 3 2 -0.15802
chimesFF: 	3 0 2 -0.15802
chimesFF: 	2 3 0 -0.15802
chimesFF: 	3 2 0 -0.15802
chimesFF: 	0 3 3 0.62361
chimesFF: 	3 0 3 0.62361
chimesFF: 	3 3 0 0.62361
chimesFF: 	0 3 4 -0.09051
chimesFF: 	3 0 4 -0.09051
chimesFF: 	0 4 3 -0.09051
chimesFF: 	4 0 3 -0.09051
chimesFF: 	3 4 0 -0.09051
chimesFF: 	4 3 0 -0.09051
chimesFF: 	0 3 6 1.17143
chimesFF: 	3 0 6 1.17143
chimesFF: 	0 6 3 1.17143
chimesFF: 	6 0 3 1.17143
chimesFF: 	3 6 0 1.17143
chimesFF: 	6 3 0 1.17143
chimesFF: 	0 3 7 0.28161
chimesFF: 	3 0 7 0.28161
chimesFF: 	0 7 3 0.28161
chimesFF: 	7 0 3 0.28161
chimesFF: 	3 7 0 0.28161
chimesFF: 	7 3 0 0.28161
chimesFF: 	0 4 7 -0.21382
chimesFF: 	4 0 7 -0.21382
chimesFF: 	0 7 4 -0.21382
chimesFF: 	7 0 4 -0.21382
chimesFF: 	4 7 0 -0.21382
chimesFF: 	7 4 0 -0.21382
chimesFF: 	0 5 6 -0.44000
chimesFF: 	5 0 6 -0.44000
chimesFF: 	0 6 5 -0.44000
chimesFF: 	6 0 5 -0.44000
chimesFF: 	5 6 0 -0.44000
chimesFF: 	6 5 0 -0.44000
chimesFF: 	0 7 7 -0.20285
chimesFF: 	7 0 7 -0.20285
chimesFF: 	7 7 0 -0.20285
chimesFF: 	2 3 7 -0.01581
chimesFF: 	3 2 7 -0.01581
chimesFF: 	2 7 3 -0.01581
chimesFF: 	7 2 3 -0.01581
chimesFF: 	3 7 2 -0.01581
chimesFF: 	7 3 2 -0.01581
chimesFF: 	2 4 7 0.14674
chimesFF: 	4 2 7 0.14674
chimesFF: 	2 7 4 0.14674
chimesFF: 	7 2 4 0.14674
chimesFF: 	4 7 2 0.14674
chimesFF: 	7 4 2 0.14674
chimesFF: 	3 4 7 -0.17956
chimesFF: 	4 3 7 -0.17956
chimesFF: 	3 7 4 -0.17956
chimesFF: 	7 3 4 -0.17956
chimesFF: 	4 7 3 -0.17956
chimesFF: 	7 4 3 -0.17956
chimesFF: 	3 5 6 -0.35148
chimesFF: 	5 3 6 -0.35148
chimesFF: 	3 6 5 -0.35148
chimesFF: 	6 3 5 -0.35148
chimesFF: 	5 6 3 -0.35148
chimesFF: 	6 5 3 -0.35148
chimesFF: 	5 6 6 -0.14149
chimesFF: 	6 5 6 -0.14149
chimesFF: 	6 6 5 -0.14149
chimesFF: 	6 7 7 -0.07087
chimesFF: 	7 6 7 -0.07087
chimesFF: 	7 7 6 -0.07087
chimesFF: Read 3B parameters for triplet: 26 H H N
chimesFF: 	0 1 2 -0.37638
chimesFF: 	0 2 1 -0.37638
chimesFF: 	0 1 5 -0.34593
chimesFF: 	0 5 1 -0.34593
chimesFF: 	0 2 4 -0.83875
chimesFF: 	0 4 2 -0.83875
chimesFF: 	0 3 6 -0.05571
chimesFF: 	0 6 3 -0.05571
chimesFF: 	0 5 6 0.18186
chimesFF: 	0 6 5 0.18186
chimesFF: 	0 5 7 0.06814
chimesFF: 	0 7 5 0.06814
chimesFF: 	1 0 1 0.38296
chimesFF: 	1 1 0 0.38296
chimesFF: 	1 0 7 0.03528
chimesFF: 	1 7 0 0.03528
chimesFF: 	4 6 7 -0.67759
chimesFF: 	4 7 6 -0.67759
chimesFF: 	5 0 3 0.40820
chimesFF: 	5 3 0 0.40820
chimesFF: 	5 0 7 -0.16217
chimesFF: 	5 7 0 -0.16217
chimesFF: 	5 3 4 0.51260
chimesFF: 	5 4 3 0.51260
chimesFF: 	5 5 6 0.40376
chimesFF: 	5 6 5 0.40376
chimesFF: 	5 7 7 -0.43908
chimesFF: 	6 3 6 0.28848
chimesFF: 	6 6 3 0.28848
chimesFF: 	7 0 5 0.27832
chimesFF: 	7 5 0 0.27832
chimesFF: 	7 0 6 -0.25033
chimesFF: 	7 6 0 -0.25033
chimesFF: 	7 2 6 0.40393
chimesFF: 	7 6 2 0.40393
chimesFF: 	7 3 7 0.03550
chimesFF: 	7 7 3 0.03550
chimesFF: Read 3B parameters for triplet: 27 H H O
chimesFF: 	0 1 2 -2.25388
chimesFF: 	0 2 1 -2.25388
chimesFF: 	0 1 5 0.88446
chimesFF: 	0 5 1 0.88446
chimesFF: 	0 1 6 -0.09905
chimesFF: 	0 6 1 -0.09905
chimesFF: 	0 1 7 0.95507
chimesFF: 	0 7 1 0.95507
chimesFF: 	0 2 3 0.81870
chimesFF: 	0 3 2 0.81870
chimesFF: 	0 2 5 -0.35902
chimesFF: 	0 5 2 -0.35902
chimesFF: 	0 2 6 -0.40056
chimesFF: 	0 6 2 -0.40056
chimesFF: 	0 4 5 0.28200
chimesFF: 	0 5 4 0.28200
chimesFF: 	0 4 6 -0.17112
chimesFF: 	0 6 4 -0.17112
chimesFF: 	0 5 5 -0.00998
chimesFF: 	0 6 6 0.02825
chimesFF: 	0 6 7 0.08542
chimesFF: 	0 7 6 0.08542
chimesFF: 	1 0 2 2.71851
chimesFF: 	1 2 0 2.71851
chimesFF: 	1 0 3 1.34098
chimesFF: 	1 3 0 1.34098
chimesFF: 	1 0 5 -1.02522
chimesFF: 	1 5 0 -1.02522
chimesFF: 	1 1 4 -0.79203
chimesFF: 	1 4 1 -0.79203
chimesFF: 	1 3 6 -0.23330
chimesFF: 	1 6 3 -0.23330
chimesFF: 	1 5 7 -0.14536
chimesFF: 	1 7 5 -0.14536
chimesFF: 	1 6 7 -0.00053
chimesFF: 	1 7 6 -0.00053
chimesFF: 	2 0 6 -0.80470
chimesFF: 	2 6 0 -0.80470
chimesFF: 	2 2 4 -1.78644
chimesFF: 	2 4 2 -1.78644
chimesFF: 	2 3 4 -0.32082
chimesFF: 	2 4 3 -0.32082
chimesFF: 	2 4 5 1.10157
chimesFF: 	2 5 4 1.10157
chimesFF: 	2 4 6 -0.33315
chimesFF: 	2 6 4 -0.33315
chimesFF: 	2 4 7 -0.91862
chimesFF: 	2 7 4 -0.91862
chimesFF: 	2 5 6 -0.23693
chimesFF: 	2 6 5 -0.23693
chimesFF: 	2 5 7 0.08934
chimesFF: 	2 7 5 0.08934
chimesFF: 	3 0 1 -0.23785
chimesFF: 	3 1 0 -0.23785
chimesFF: 	3 0 3 -0.04870
chimesFF: 	3 3 0 -0.04870
chimesFF: 	3 1 7 -0.47742
chimesFF: 	3 7 1 -0.47742
chimesFF: 	3 2 6 -0.52891
chimesFF: 	3 6 2 -0.52891
chimesFF: 	3 3 4 0.94035
chimesFF: 	3 4 3 0.94035
chimesFF: 	3 3 5 -1.31467
chimesFF: 	3 5 3 -1.31467
chimesFF: 	3 3 7 0.27734
chimesFF: 	3 7 3 0.27734
chimesFF: 	3 4 6 0.26449
chimesFF: 	3 6 4 0.26449
chimesFF: 	3 7 7 0.04784
chimesFF: 	4 0 5 -1.31742
chimesFF: 	4 5 0 -1.31742
chimesFF: 	4 1 2 0.92878
chimesFF: 	4 2 1 0.92878
chimesFF: 	4 3 5 1.28014
chimesFF: 	4 5 3 1.28014
chimesFF: 	4 3 7 -0.31014
chimesFF: 	4 7 3 -0.31014
chimesFF: 	4 6 6 -0.66546
chimesFF: 	5 0 1 0.27941
chimesFF: 	5 1 0 0.27941
chimesFF: 	5 0 4 -0.06440
chimesFF: 	5 4 0 -0.06440
chimesFF: 	5 0 6 0.73674
chimesFF: 	5 6 0 0.73674
chimesFF: 	5 1 3 -1.14048
chimesFF: 	5 3 1 -1.14048
chimesFF: 	5 1 5 0.40533
chimesFF: 	5 5 1 0.40533
chimesFF: 	5 2 4 2.02921
chimesFF: 	5 4 2 2.02921
chimesFF: 	5 2 5 -0.20324
chimesFF: 	5 5 2 -0.20324
chimesFF: 	5 3 3 1.21942
chimesFF: 	5 3 6 -0.23665
chimesFF: 	5 6 3 -0.23665
chimesFF: 	5 5 6 0.97016
chimesFF: 	5 6 5 0.97016
chimesFF: 	6 0 3 1.45275
chimesFF: 	6 3 0 1.45275
chimesFF: 	6 0 5 -0.59665
chimesFF: 	6 5 0 -0.59665
chimesFF: 	6 1 2 1.45022
chimesFF: 	6 2 1 1.45022
chimesFF: 	6 1 3 1.68137
chimesFF: 	6 3 1 1.68137
chimesFF: 	6 2 3 -0.43700
chimesFF: 	6 3 2 -0.43700
chimesFF: 	6 2 6 0.54848
chimesFF: 	6 6 2 0.54848
chimesFF: 	6 3 5 2.29781
chimesFF: 	6 5 3 2.29781
chimesFF: 	6 3 6 1.23353
chimesFF: 	6 6 3 1.23353
chimesFF: 	6 4 6 -1.03042
chimesFF: 	6 6 4 -1.03042
chimesFF: 	6 4 7 -0.85836
chimesFF: 	6 7 4 -0.85836
chimesFF: 	6 5 6 -0.22407
chimesFF: 	6 6 5 -0.22407
chimesFF: 	6 7 7 0.17334
chimesFF: 	7 0 2 -1.96347
chimesFF: 	7 2 0 -1.96347
chimesFF: 	7 0 4 0.11215
chimesFF: 	7 4 0 0.11215
chimesFF: 	7 0 5 0.39434
chimesFF: 	7 5 0 0.39434
chimesFF: 	7 0 6 -0.10449
chimesFF: 	7 6 0 -0.10449
chimesFF: 	7 1 2 -0.18717
chimesFF: 	7 2 1 -0.18717
chimesFF: 	7 1 7 -0.96194
chimesFF: 	7 7 1 -0.96194
chimesFF: 	7 2 3 1.82300
chimesFF: 	7 3 2 1.82300
chimesFF: 	7 2 4 -0.48978
chimesFF: 	7 4 2 -0.48978
chimesFF: 	7 2 5 -0.66458
chimesFF: 	7 5 2 -0.66458
chimesFF: 	7 2 7 0.18747
chimesFF: 	7 7 2 0.18747
chimesFF: 	7 3 4 -0.42755
chimesFF: 	7 4 3 -0.42755
chimesFF: 	7 3 6 1.41906
chimesFF: 	7 6 3 1.41906
chimesFF: 	7 4 5 0.29459
chimesFF: 	7 5 4 0.29459
chimesFF: 	7 4 7 -0.26070
chimesFF: 	7 7 4 -0.26070
chimesFF: 	7 5 5 0.73714
chimesFF: 	7 5 7 -0.20973
chimesFF: 	7 7 5 -0.20973
chimesFF: 	7 6 6 -0.04328
chimesFF: 	7 7 7 0.28182
chimesFF: Read 3B parameters for triplet: 28 H N N
chimesFF: 	0 2 5 0.30787
chimesFF: 	2 0 5 0.30787
chimesFF: 	0 4 7 -0.22462
chimesFF: 	4 0 7 -0.22462
chimesFF: 	0 5 4 -0.31758
chimesFF: 	5 0 4 -0.31758
chimesFF: 	0 5 7 0.79526
chimesFF: 	5 0 7 0.79526
chimesFF: 	0 6 3 0.10332
chimesFF: 	6 0 3 0.10332
chimesFF: 	0 7 7 -1.44698
chimesFF: 	7 0 7 -1.44698
chimesFF: 	2 4 0 -4.54318
chimesFF: 	4 2 0 -4.54318
chimesFF: 	2 4 2 6.01563
chimesFF: 	4 2 2 6.01563
chimesFF: 	2 4 3 8.27503
chimesFF: 	4 2 3 8.27503
chimesFF: 	2 4 5 -2.66364
chimesFF: 	4 2 5 -2.66364
chimesFF: 	2 6 0 0.16671
chimesFF: 	6 2 0 0.16671
chimesFF: 	2 6 3 -2.10313
chimesFF: 	6 2 3 -2.10313
chimesFF: 	2 6 5 0.47774
chimesFF: 	6 2 5 0.47774
chimesFF: 	2 6 6 1.57880
chimesFF: 	6 2 6 1.57880
chimesFF: 	2 7 0 -1.19898
chimesFF: 	7 2 0 -1.19898
chimesFF: 	3 4 3 1.80210
chimesFF: 	4 3 3 1.80210
chimesFF: 	3 4 5 -0.69957
chimesFF: 	4 3 5 -0.69957
chimesFF: 	3 5 0 -1.16987
chimesFF: 	5 3 0 -1.16987
chimesFF: 	3 5 3 3.30623
chimesFF: 	5 3 3 3.30623
chimesFF: 	3 5 6 -1.72733
chimesFF: 	5 3 6 -1.72733
chimesFF: 	3 5 7 -0.22585
chimesFF: 	5 3 7 -0.22585
chimesFF: 	3 6 4 -0.41403
chimesFF: 	6 3 4 -0.41403
chimesFF: 	3 6 6 0.93069
chimesFF: 	6 3 6 0.93069
chimesFF: 	3 7 0 -1.90656
chimesFF: 	7 3 0 -1.90656
chimesFF: 	3 7 3 5.64695
chimesFF: 	7 3 3 5.64695
chimesFF: 	3 7 5 -0.58458
chimesFF: 	7 3 5 -0.58458
chimesFF: 	3 7 7 4.07784
chimesFF: 	7 3 7 4.07784
chimesFF: 	4 5 3 0.23276
chimesFF: 	5 4 3 0.23276
chimesFF: 	4 6 4 1.05190
chimesFF: 	6 4 4 1.05190
chimesFF: 	5 5 0 2.44041
chimesFF: 	5 5 3 -1.17601
chimesFF: 	5 5 7 1.13719
chimesFF: 	5 7 0 1.06769
chimesFF: 	7 5 0 1.06769
chimesFF: 	6 6 3 0.60320
chimesFF: 	6 6 5 -0.15914
chimesFF: 	6 7 7 -0.93130
chimesFF: 	7 6 7 -0.93130
chimesFF: 	7 7 3 0.62884
chimesFF: 	7 7 5 -0.35709
chimesFF: 	7 7 6 -0.05024
chimesFF: Read 3B parameters for triplet: 29 H N O
chimesFF: 	0 2 5 1.19001
chimesFF: 	0 2 7 -3.96098
chimesFF: 	0 3 3 -0.86072
chimesFF: 	0 3 6 -0.20049
chimesFF: 	0 4 6 0.89312
chimesFF: 	0 6 4 -0.15872
chimesFF: 	0 6 5 0.32334
chimesFF: 	0 7 5 -0.30185
chimesFF: 	0 7 7 0.89252
chimesFF: 	1 0 2 3.46551
chimesFF: 	1 0 3 -3.91961
chimesFF: 	2 1 0 -1.47680
chimesFF: 	2 3 3 1.37055
chimesFF: 	2 4 7 -0.31840
chimesFF: 	2 6 0 -1.39789
chimesFF: 	2 6 6 -0.16562
chimesFF: 	3 4 0 -0.50472
chimesFF: 	3 5 3 0.03529
chimesFF: 	4 0 2 0.64973
chimesFF: 	4 4 6 -0.38285
chimesFF: 	5 0 4 1.67753
chimesFF: 	5 4 0 0.30338
chimesFF: 	5 4 6 0.74545
chimesFF: 	6 0 6 0.43928
chimesFF: 	6 7 6 -0.01468
chimesFF: 	7 6 0 0.55429
chimesFF: 	7 6 3 0.00485
chimesFF: 	7 6 5 -0.55160
chimesFF: Read 3B parameters for triplet: 30 H O O
chimesFF: 	0 2 1 -12.05605
chimesFF: 	2 0 1 -12.05605
chimesFF: 	0 2 4 -4.25250
chimesFF: 	2 0 4 -4.25250
chimesFF: 	0 2 5 2.46371
chimesFF: 	2 0 5 2.46371
chimesFF: 	0 2 6 1.25615
chimesFF: 	2 0 6 1.25615
chimesFF: 	0 2 7 -1.82833
chimesFF: 	2 0 7 -1.82833
chimesFF: 	0 3 6 0.22493
chimesFF: 	3 0 6 0.22493
chimesFF: 	0 3 7 -0.56931
chimesFF: 	3 0 7 -0.56931
chimesFF: 	0 4 4 0.85047
chimesFF: 	4 0 4 0.85047
chimesFF: 	0 4 5 0.31200
chimesFF: 	4 0 5 0.31200
chimesFF: 	0 5 2 -2.16032
chimesFF: 	5 0 2 -2.16032
chimesFF: 	0 5 3 0.11725
chimesFF: 	5 0 3 0.11725
chimesFF: 	0 5 5 -0.15965
chimesFF: 	5 0 5 -0.15965
chimesFF: 	0 6 2 0.79314
chimesFF: 	6 0 2 0.79314
chimesFF: 	0 6 4 -0.23966
chimesFF: 	6 0 4 -0.23966
chimesFF: 	0 7 3 -0.71312
chimesFF: 	7 0 3 -0.71312
chimesFF: 	0 7 5 -0.67674
chimesFF: 	7 0 5 -0.67674
chimesFF: 	1 1 6 -1.23440
chimesFF: 	1 2 4 -4.56662
chimesFF: 	2 1 4 -4.56662
chimesFF: 	1 3 3 -2.44436
chimesFF: 	3 1 3 -2.44436
chimesFF: 	1 4 6 -2.57582
chimesFF: 	4 1 6 -2.57582
chimesFF: 	1 5 3 1.60262
chimesFF: 	5 1 3 1.60262
chimesFF: 	1 7 6 0.34130
chimesFF: 	7 1 6 0.34130
chimesFF: 	1 7 7 -0.90903
chimesFF: 	7 1 7 -0.90903
chimesFF: 	2 2 5 -2.97934
chimesFF: 	2 3 2 -1.51165
chimesFF: 	3 2 2 -1.51165
chimesFF: 	2 3 7 1.08586
chimesFF: 	3 2 7 1.08586
chimesFF: 	2 4 4 -3.21391
chimesFF: 	4 2 4 -3.21391
chimesFF: 	2 4 5 0.19248
chimesFF: 	4 2 5 0.19248
chimesFF: 	2 4 7 -0.13229
chimesFF: 	4 2 7 -0.13229
chimesFF: 	2 5 0 -0.02068
chimesFF: 	5 2 0 -0.02068
chimesFF: 	2 5 3 -0.50489
chimesFF: 	5 2 3 -0.50489
chimesFF: 	2 5 6 0.81922
chimesFF: 	5 2 6 0.81922
chimesFF: 	2 5 7 -0.83343
chimesFF: 	5 2 7 -0.83343
chimesFF: 	2 6 5 0.51878
chimesFF: 	6 2 5 0.51878
chimesFF: 	2 6 7 0.35574
chimesFF: 	6 2 7 0.35574
chimesFF: 	2 7 3 1.60526
chimesFF: 	7 2 3 1.60526
chimesFF: 	2 7 6 -0.28975
chimesFF: 	7 2 6 -0.28975
chimesFF: 	3 4 0 -2.03232
chimesFF: 	4 3 0 -2.03232
chimesFF: 	3 4 6 0.56611
chimesFF: 	4 3 6 0.56611
chimesFF: 	3 4 7 0.28331
chimesFF: 	4 3 7 0.28331
chimesFF: 	3 5 7 -0.59294
chimesFF: 	5 3 7 -0.59294
chimesFF: 	3 6 0 2.63008
chimesFF: 	6 3 0 2.63008
chimesFF: 	3 6 4 0.64256
chimesFF: 	6 3 4 0.64256
chimesFF: 	3 6 6 -0.52590
chimesFF: 	6 3 6 -0.52590
chimesFF: 	3 7 1 -1.40668
chimesFF: 	7 3 1 -1.40668
chimesFF: 	3 7 4 -0.12476
chimesFF: 	7 3 4 -0.12476
chimesFF: 	3 7 5 0.37559
chimesFF: 	7 3 5 0.37559
chimesFF: 	4 4 3 -0.80791
chimesFF: 	4 5 1 -3.25808
chimesFF: 	5 4 1 -3.25808
chimesFF: 	4 5 3 0.87059
chimesFF: 	5 4 3 0.87059
chimesFF: 	4 5 4 1.26297
chimesFF: 	5 4 4 1.26297
chimesFF: 	4 5 5 0.07554
chimesFF: 	5 4 5 0.07554
chimesFF: 	4 5 6 -0.78794
chimesFF: 	5 4 6 -0.78794
chimesFF: 	4 6 3 0.68800
chimesFF: 	6 4 3 0.68800
chimesFF: 	4 6 5 -0.31042
chimesFF: 	6 4 5 -0.31042
chimesFF: 	4 7 1 0.14675
chimesFF: 	7 4 1 0.14675
chimesFF: 	4 7 2 -0.47719
chimesFF: 	7 4 2 -0.47719
chimesFF: 	4 7 3 -0.30954
chimesFF: 	7 4 3 -0.30954
chimesFF: 	4 7 4 0.33833
chimesFF: 	7 4 4 0.33833
chimesFF: 	4 7 6 0.65061
chimesFF: 	7 4 6 0.65061
chimesFF: 	4 7 7 0.15690
chimesFF: 	7 4 7 0.15690
chimesFF: 	5 5 0 0.94628
chimesFF: 	5 6 0 -0.67964
chimesFF: 	6 5 0 -0.67964
chimesFF: 	5 6 6 0.90303
chimesFF: 	6 5 6 0.90303
chimesFF: 	5 7 0 -0.18233
chimesFF: 	7 5 0 -0.18233
chimesFF: 	5 7 2 0.87334
chimesFF: 	7 5 2 0.87334
chimesFF: 	5 7 3 -0.68090
chimesFF: 	7 5 3 -0.68090
chimesFF: 	5 7 6 0.87613
chimesFF: 	7 5 6 0.87613
chimesFF: 	5 7 7 -0.21020
chimesFF: 	7 5 7 -0.21020
chimesFF: 	6 6 2 0.12902
chimesFF: 	6 6 6 -0.58925
chimesFF: 	6 6 7 -0.29780
chimesFF: 	6 7 1 -0.75209
chimesFF: 	7 6 1 -0.75209
chimesFF: 	6 7 5 0.76504
chimesFF: 	7 6 5 0.76504
chimesFF: 	7 7 0 0.06639
chimesFF: 	7 7 3 0.19768
chimesFF: 	7 7 5 0.08133
chimesFF: 	7 7 6 -1.00825
chimesFF: 	7 7 7 -0.80778
chimesFF: Read 3B parameters for triplet: 31 N N N
chimesFF: 	1 3 7 0.23687
chimesFF: 	3 1 7 0.23687
chimesFF: 	1 7 3 0.23687
chimesFF: 	7 1 3 0.23687
chimesFF: 	3 7 1 0.23687
chimesFF: 	7 3 1 0.23687
chimesFF: Read 3B parameters for triplet: 32 N N O
chimesFF: 	7 5 7 -0.66233
chimesFF: 	7 7 5 -0.66233
chimesFF: Read 3B parameters for triplet: 33 N O O
chimesFF: Read 3B parameters for triplet: 34 O O O
chimesFF: 	0 1 2 1.95232
chimesFF: 	1 0 2 1.95232
chimesFF: 	0 2 1 1.95232
chimesFF: 	2 0 1 1.95232
chimesFF: 	1 2 0 1.95232
chimesFF: 	2 1 0 1.95232
chimesFF: 	0 2 3 -2.12255
chimesFF: 	2 0 3 -2.12255
chimesFF: 	0 3 2 -2.12255
chimesFF: 	3 0 2 -2.12255
chimesFF: 	2 3 0 -2.12255
chimesFF: 	3 2 0 -2.12255
chimesFF: 	0 3 6 -0.33646
chimesFF: 	3 0 6 -0.33646
chimesFF: 	0 6 3 -0.33646
chimesFF: 	6 0 3 -0.33646
chimesFF: 	3 6 0 -0.33646
chimesFF: 	6 3 0 -0.33646
chimesFF: 	0 3 7 0.45948
chimesFF: 	3 0 7 0.45948
chimesFF: 	0 7 3 0.45948
chimesFF: 	7 0 3 0.45948
chimesFF: 	3 7 0 0.45948
chimesFF: 	7 3 0 0.45948
chimesFF: 	0 5 6 0.57580
chimesFF: 	5 0 6 0.57580
chimesFF: 	0 6 5 0.57580
chimesFF: 	6 0 5 0.57580
chimesFF: 	5 6 0 0.57580
chimesFF: 	6 5 0 0.57580
chimesFF: 	2 5 7 0.19370
chimesFF: 	5 2 7 0.19370
chimesFF: 	2 7 5 0.19370
chimesFF: 	7 2 5 0.19370
chimesFF: 	5 7 2 0.19370
chimesFF: 	7 5 2 0.19370
chimesFF: 	4 5 7 -0.64106
chimesFF: 	5 4 7 -0.64106
chimesFF: 	4 7 5 -0.64106
chimesFF: 	7 4 5 -0.64106
chimesFF: 	5 7 4 -0.64106
chimesFF: 	7 5 4 -0.64106
chimesFF: Built the following 3-body pair "slow" map:
chimesFF: 	0 AlAlAlAlAlAl
chimesFF: 	1 AlAlAlCAlC
chimesFF: 	2 AlAlAlHAlH
chimesFF: 	3 AlAlAlNAlN
chimesFF: 	4 AlAlAlOAlO
chimesFF: 	1 AlCAlAlAlC
chimesFF: 	1 AlCAlCAlAl
chimesFF: 	5 AlCAlCCC
chimesFF: 	6 AlCAlHCH
chimesFF: 	7 AlCAlNCN
chimesFF: 	8 AlCAlOCO
chimesFF: 	5 AlCCCAlC
chimesFF: 	6 AlCCHAlH
chimesFF: 	7 AlCCNAlN
chimesFF: 	8 AlCCOAlO
chimesFF: 	2 AlHAlAlAlH
chimesFF: 	6 AlHAlCCH
chimesFF: 	2 AlHAlHAlAl
chimesFF: 	9 AlHAlHHH
chimesFF: 	10 AlHAlNHN
chimesFF: 	11 AlHAlOHO
chimesFF: 	6 AlHCHAlC
chimesFF: 	9 AlHHHAlH
chimesFF: 	10 AlHHNAlN
chimesFF: 	11 AlHHOAlO
chimesFF: 	3 AlNAlAlAlN
chimesFF: 	7 AlNAlCCN
chimesFF: 	10 AlNAlHHN
chimesFF: 	3 AlNAlNAlAl
chimesFF: 	12 AlNAlNNN
chimesFF: 	13 AlNAlONO
chimesFF: 	7 AlNCNAlC
chimesFF: 	10 AlNHNAlH
chimesFF: 	12 AlNNNAlN
chimesFF: 	13 AlNNOAlO
chimesFF: 	4 AlOAlAlAlO
chimesFF: 	8 AlOAlCCO
chimesFF: 	11 AlOAlHHO
chimesFF: 	13 AlOAlNNO
chimesFF: 	4 AlOAlOAlAl
chimesFF: 	14 AlOAlOOO
chimesFF: 	8 AlOCOAlC
chimesFF: 	11 AlOHOAlH
chimesFF: 	13 AlONOAlN
chimesFF: 	14 AlOOOAlO
chimesFF: 	5 CCAlCAlC
chimesFF: 	15 CCCCCC
chimesFF: 	16 CCCHCH
chimesFF: 	17 CCCNCN
chimesFF: 	18 CCCOCO
chimesFF: 	6 CHAlCAlH
chimesFF: 	6 CHAlHAlC
chimesFF: 	16 CHCCCH
chimesFF: 	16 CHCHCC
chimesFF: 	19 CHCHHH
chimesFF: 	20 CHCNHN
chimesFF: 	21 CHCOHO
chimesFF: 	19 CHHHCH
chimesFF: 	20 CHHNCN
chimesFF: 	21 CHHOCO
chimesFF: 	7 CNAlCAlN
chimesFF: 	7 CNAlNAlC
chimesFF: 	17 CNCCCN
chimesFF: 	20 CNCHHN
chimesFF: 	17 CNCNCC
chimesFF: 	22 CNCNNN
chimesFF: 	23 CNCONO
chimesFF: 	20 CNHNCH
chimesFF: 	22 CNNNCN
chimesFF: 	23 CNNOCO
chimesFF: 	8 COAlCAlO
chimesFF: 	8 COAlOAlC
chimesFF: 	18 COCCCO
chimesFF: 	21 COCHHO
chimesFF: 	23 COCNNO
chimesFF: 	18 COCOCC
chimesFF: 	24 COCOOO
chimesFF: 	21 COHOCH
chimesFF: 	23 CONOCN
chimesFF: 	24 COOOCO
chimesFF: 	9 HHAlHAlH
chimesFF: 	19 HHCHCH
chimesFF: 	25 HHHHHH
chimesFF: 	26 HHHNHN
chimesFF: 	27 HHHOHO
chimesFF: 	10 HNAlHAlN
chimesFF: 	10 HNAlNAlH
chimesFF: 	20 HNCHCN
chimesFF: 	20 HNCNCH
chimesFF: 	26 HNHHHN
chimesFF: 	26 HNHNHH
chimesFF: 	28 HNHNNN
chimesFF: 	29 HNHONO
chimesFF: 	28 HNNNHN
chimesFF: 	29 HNNOHO
chimesFF: 	11 HOAlHAlO
chimesFF: 	11 HOAlOAlH
chimesFF: 	21 HOCHCO
chimesFF: 	21 HOCOCH
chimesFF: 	27 HOHHHO
chimesFF: 	29 HOHNNO
chimesFF: 	27 HOHOHH
chimesFF: 	30 HOHOOO
chimesFF: 	29 HONOHN
chimesFF: 	30 HOOOHO
chimesFF: 	12 NNAlNAlN
chimesFF: 	22 NNCNCN
chimesFF: 	28 NNHNHN
chimesFF: 	31 NNNNNN
chimesFF: 	32 NNNONO
chimesFF: 	13 NOAlNAlO
chimesFF: 	13 NOAlOAlN
chimesFF: 	23 NOCNCO
chimesFF: 	23 NOCOCN
chimesFF: 	29 NOHNHO
chimesFF: 	29 NOHOHN
chimesFF: 	32 NONNNO
chimesFF: 	32 NONONN
chimesFF: 	33 NONOOO
chimesFF: 	33 NOOONO
chimesFF: 	14 OOAlOAlO
chimesFF: 	24 OOCOCO
chimesFF: 	30 OOHOHO
chimesFF: 	33 OONONO
chimesFF: 	34 OOOOOO
chimesFF: Built the following 3-body pair "fast" map:
chimesFF: 	0 0
chimesFF: 	1 1
chimesFF: 	2 2
chimesFF: 	3 3
chimesFF: 	4 4
chimesFF: 	5 1
chimesFF: 	6 5
chimesFF: 	7 6
chimesFF: 	8 7
chimesFF: 	9 8
chimesFF: 	10 2
chimesFF: 	11 6
chimesFF: 	12 9
chimesFF: 	13 10
chimesFF: 	14 11
chimesFF: 	15 3
chimesFF: 	16 7
chimesFF: 	17 10
chimesFF: 	18 12
chimesFF: 	19 13
chimesFF: 	20 4
chimesFF: 	21 8
chimesFF: 	22 11
chimesFF: 	23 13
chimesFF: 	24 14
chimesFF: 	25 1
chimesFF: 	26 5
chimesFF: 	27 6
chimesFF: 	28 7
chimesFF: 	29 8
chimesFF: 	30 5
chimesFF: 	31 15
chimesFF: 	32 16
chimesFF: 	33 17
chimesFF: 	34 18
chimesFF: 	35 6
chimesFF: 	36 16
chimesFF: 	37 19
chimesFF: 	38 20
chimesFF: 	39 21
chimesFF: 	40 7
chimesFF: 	41 17
chimesFF: 	42 20
chimesFF: 	43 22
chimesFF: 	44 23
chimesFF: 	45 8
chimesFF: 	46 18
chimesFF: 	47 21
chimesFF: 	48 23
chimesFF: 	49 24
chimesFF: 	50 2
chimesFF: 	51 6
chimesFF: 	52 9
chimesFF: 	53 10
chimesFF: 	54 11
chimesFF: 	55 6
chimesFF: 	56 16
chimesFF: 	57 19
chimesFF: 	58 20
chimesFF: 	59 21
chimesFF: 	60 9
chimesFF: 	61 19
chimesFF: 	62 25
chimesFF: 	63 26
chimesFF: 	64 27
chimesFF: 	65 10
chimesFF: 	66 20
chimesFF: 	67 26
chimesFF: 	68 28
chimesFF: 	69 29
chimesFF: 	70 11
chimesFF: 	71 21
chimesFF: 	72 27
chimesFF: 	73 29
chimesFF: 	74 30
chimesFF: 	75 3
chimesFF: 	76 7
chimesFF: 	77 10
chimesFF: 	78 12
chimesFF: 	79 13
chimesFF: 	80 7
chimesFF: 	81 17
chimesFF: 	82 20
chimesFF: 	83 22
chimesFF: 	84 23
chimesFF: 	85 10
chimesFF: 	86 20
chimesFF: 	87 26
chimesFF: 	88 28
chimesFF: 	89 29
chimesFF: 	90 12
chimesFF: 	91 22
chimesFF: 	92 28
chimesFF: 	93 31
chimesFF: 	94 32
chimesFF: 	95 13
chimesFF: 	96 23
chimesFF: 	97 29
chimesFF: 	98 32
chimesFF: 	99 33
chimesFF: 	100 4
chimesFF: 	101 8
chimesFF: 	102 11
chimesFF: 	103 13
chimesFF: 	104 14
chimesFF: 	105 8
chimesFF: 	106 18
chimesFF: 	107 21
chimesFF: 	108 23
chimesFF: 	109 24
chimesFF: 	110 11
chimesFF: 	111 21
chimesFF: 	112 27
chimesFF: 	113 29
chimesFF: 	114 30
chimesFF: 	115 13
chimesFF: 	116 23
chimesFF: 	117 29
chimesFF: 	118 32
chimesFF: 	119 33
chimesFF: 	120 14
chimesFF: 	121 24
chimesFF: 	122 30
chimesFF: 	123 33
chimesFF: 	124 34
chimesFF: Set the following special 3-body outer cutoffs: 
chimesFF: 	0 5.00000 5.00000 5.00000
chimesFF: 	1 5.00000 5.00000 5.00000
chimesFF: 	2 5.00000 5.00000 5.00000
chimesFF: 	3 5.00000 5.00000 5.00000
chimesFF: 	4 5.00000 5.00000 5.00000
chimesFF: 	5 5.00000 5.00000 5.00000
chimesFF: 	6 5.00000 5.00000 5.00000
chimesFF: 	7 5.00000 5.00000 5.00000
chimesFF: 	8 5.00000 5.00000 5.00000
chimesFF: 	9 5.00000 5.00000 5.00000
chimesFF: 	10 5.00000 5.00000 5.00000
chimesFF: 	11 5.00000 5.00000 5.00000
chimesFF: 	12 5.00000 5.00000 5.00000
chimesFF: 	13 5.00000 5.00000 5.00000
chimesFF: 	14 5.00000 5.00000 5.00000
chimesFF: 	15 5.00000 5.00000 5.00000
chimesFF: 	16 5.00000 5.00000 5.00000
chimesFF: 	17 5.00000 5.00000 5.00000
chimesFF: 	18 5.00000 5.00000 5.00000
chimesFF: 	19 5.00000 5.00000 5.00000
chimesFF: 	20 5.00000 5.00000 5.00000
chimesFF: 	21 5.00000 5.00000 5.00000
chimesFF: 	22 5.00000 5.00000 5.00000
chimesFF: 	23 5.00000 5.00000 5.00000
chimesFF: 	24 5.00000 5.00000 5.00000
chimesFF: 	25 5.00000 5.00000 5.00000
chimesFF: 	26 5.00000 5.00000 5.00000
chimesFF: 	27 5.00000 5.00000 5.00000
chimesFF: 	28 5.00000 5.00000 5.00000
chimesFF: 	29 5.00000 5.00000 5.00000
chimesFF: 	30 5.00000 5.00000 5.00000
chimesFF: 	31 5.00000 5.00000 5.00000
chimesFF: 	32 5.00000 5.00000 5.00000
chimesFF: 	33 5.00000 5.00000 5.00000
chimesFF: 	34 5.00000 5.00000 5.00000
chimesFF: 	Setting 3-body max cutoff to: 5.00000
Neighbor list info ...
  update every 1 steps, delay 0 steps, check no
  max neighbors/atom: 10000, page size: 100000
  master list distance cutoff = 7
  ghost atom cutoff = 7
  binsize = 3.5, bins = 5 5 4
  1 neighbor lists, perpetual/occasional/extra = 1 0 0
  (1) pair chimesFF, perpetual
      attributes: full, newton on, ghost
      pair build: full/bin/ghost
      stencil: full/ghost/bin/3d
      bin: standard
Setting up Verlet run ...
  Unit style    : real
  Current step  : 0
  Time step     : 0.1
Updating chimesFF neighbor lists...
chimesFF: Warning: Adding penalty in 2B Cheby calc, r < rmin+penalty_dist 0.736311 0.753000 pair type: 2
chimesFF: 	...Penalty potential = 0.464818
	Rank 0 3-body list size: 7428
	Rank 0 4-body list size: 0
	...update complete
chimesFF: Warning: Adding penalty in 2B Cheby calc, r < rmin+penalty_dist 3.00630 3.05200 pair type: 0
chimesFF: 	...Penalty potential = 9.54448
Per MPI rank memory allocation (min/avg/max) = 3.853 | 3.853 | 3.855 Mbytes
Time Step Temp TotEng PotEng KinEng Press Volume Density Enthalpy Pxx Pyy Pzz Lx Ly Lz 
                   0        0                  300    -37861.4326193754    -38114.5033926204        253.070773245     71624.9838274177     2464.55697854686     1.69877592701403    -35287.0132787771     94276.8562292084     60818.7151220883     59779.3801309564          12.23900032         15.074000359         13.358706116 
Updating chimesFF neighbor lists...
chimesFF: Warning: Adding penalty in 2B Cheby calc, r < rmin+penalty_dist 0.734215 0.753000 pair type: 2
chimesFF: 	...Penalty potential = 0.662876
	Rank 0 3-body list size: 7445
	Rank 0 4-body list size: 0
	...update complete
chimesFF: Warning: Adding penalty in 2B Cheby calc, r < rmin+penalty_dist 3.00645 3.05200 pair type: 0
chimesFF: 	...Penalty potential = 9.45220
                 0.1        1     299.505924118354    -37861.4275011624    -38114.0814871894     252.653986026967     71520.1823359266     2464.55697854686     1.69877592701403    -35290.7750442994     93885.9283277273     60762.6247277641     59911.9939522885          12.23900032         15.074000359         13.358706116 
Updating chimesFF neighbor lists...
chimesFF: Warning: Adding penalty in 2B Cheby calc, r < rmin+penalty_dist 0.733129 0.753000 pair type: 2
chimesFF: 	...Penalty potential = 0.784635
	Rank 0 3-body list size: 7444
	Rank 0 4-body list size: 0
	...update complete
chimesFF: Warning: Adding penalty in 2B Cheby calc, r < rmin+penalty_dist 3.00679 3.05200 pair type: 0
chimesFF: 	...Penalty potential = 9.24272
                 0.2        2     298.800925868024    -37861.4237834747    -38113.4830546605      252.05927118581     71204.4177233344     2464.55697854686     1.69877592701403    -35302.1208653102      93003.472317446     60589.4631560838     60020.3176964735          12.23900032         15.074000359         13.358706116 
Updating chimesFF neighbor lists...
chimesFF: Warning: Adding penalty in 2B Cheby calc, r < rmin+penalty_dist 0.733167 0.753000 pair type: 2
chimesFF: 	...Penalty potential = 0.780164
	Rank 0 3-body list size: 7444
	Rank 0 4-body list size: 0
	...update complete
chimesFF: Warning: Adding penalty in 2B Cheby calc, r < rmin+penalty_dist 3.00731 3.05200 pair type: 0
chimesFF: 	...Penalty potential = 8.92303
                 0.3        3     297.949680770641    -37861.4236890212    -38112.7648760236     251.341187002424     70660.7375293848     2464.55697854686     1.69877592701403    -35321.6622874005     91604.9286862607       60275.93266069     60101.3512412037          12.23900032         15.074000359         13.358706116 
Updating chimesFF neighbor lists...
chimesFF: Warning: Adding penalty in 2B Cheby calc, r < rmin+penalty_dist 0.734325 0.753000 pair type: 2
chimesFF: 	...Penalty potential = 0.651343
	Rank 0 3-body list size: 7444
	Rank 0 4-body list size: 0
	...update complete
chimesFF: Warning: Adding penalty in 2B Cheby calc, r < rmin+penalty_dist 3.00803 3.05200 pair type: 0
chimesFF: 	...Penalty potential = 8.50360
                 0.4        4     296.953996773272    -37861.4271138499    -38111.9283724552     250.501258605351     69898.3279677646     2464.55697854686     1.69877592701403    -35349.0690262127     89709.0707373687     59829.0153965455     60156.8977693794          12.23900032         15.074000359         13.358706116 
Updating chimesFF neighbor lists...
chimesFF: Warning: Adding penalty in 2B Cheby calc, r < rmin+penalty_dist 0.736482 0.753000 pair type: 2
chimesFF: 	...Penalty potential = 0.450691
	Rank 0 3-body list size: 7450
	Rank 0 4-body list size: 0
	...update complete
chimesFF: Warning: Adding penalty in 2B Cheby calc, r < rmin+penalty_dist 3.00892 3.05200 pair type: 0
chimesFF: 	...Penalty potential = 7.99794
                 0.5        5     295.754494235489    -37861.4316991524    -38110.9210943086     249.489395156197     68951.3088661124     2464.55697854686     1.69877592701403    -35383.1123527607     87378.2300120458     59283.0615900351     60192.6349962562          12.23900032         15.074000359         13.358706116 
Updating chimesFF neighbor lists...
chimesFF: Warning: Adding penalty in 2B Cheby calc, r < rmin+penalty_dist 0.739432 0.753000 pair type: 2
chimesFF: 	...Penalty potential = 0.249801
	Rank 0 3-body list size: 7451
	Rank 0 4-body list size: 0
	...update complete
chimesFF: Warning: Adding penalty in 2B Cheby calc, r < rmin+penalty_dist 3.00998 3.05200 pair type: 0
chimesFF: 	...Penalty potential = 7.42182
                 0.6        6     294.268866930467    -37861.4346819079    -38109.6708475613     248.236165653411     67869.7087651878     2464.55697854686     1.69877592701403     -35421.991326404     84705.0299119454     58688.3738038587     60215.7225797592          12.23900032         15.074000359         13.358706116 
Updating chimesFF neighbor lists...
chimesFF: Warning: Adding penalty in 2B Cheby calc, r < rmin+penalty_dist 0.742928 0.753000 pair type: 2
chimesFF: 	...Penalty potential = 0.102178
	Rank 0 3-body list size: 7451
	Rank 0 4-body list size: 0
	...update complete
chimesFF: Warning: Adding penalty in 2B Cheby calc, r < rmin+penalty_dist 3.01120 3.05200 pair type: 0
chimesFF: 	...Penalty potential = 6.79259
                 0.7        7     292.437832401215    -37861.4346879831    -38108.1262492226     246.691561239557     66707.2597893631     2464.55697854686     1.69877592701403    -35463.7732773523     81792.7269461878     58096.3225564515       60232.72986545          12.23900032         15.074000359         13.358706116 
Updating chimesFF neighbor lists...
chimesFF: Warning: Adding penalty in 2B Cheby calc, r < rmin+penalty_dist 0.746737 0.753000 pair type: 2
chimesFF: 	...Penalty potential = 0.024571
	Rank 0 3-body list size: 7448
	Rank 0 4-body list size: 0
	...update complete
chimesFF: Warning: Adding penalty in 2B Cheby calc, r < rmin+penalty_dist 3.01257 3.05200 pair type: 0
chimesFF: 	...Penalty potential = 6.12835
                 0.8        8     290.249911367013    -37861.4320371147    -38106.2779354611     244.845898346476     65510.7049803216     2464.55697854686     1.69877592701403    -35506.7784385332     78737.1186958331     57546.5932760117     60248.4029691201          12.23900032         15.074000359         13.358706116 
Updating chimesFF neighbor lists...
chimesFF: Warning: Adding penalty in 2B Cheby calc, r < rmin+penalty_dist 0.750672 0.753000 pair type: 2
chimesFF: 	...Penalty potential = 0.001261
	Rank 0 3-body list size: 7446
	Rank 0 4-body list size: 0
	...update complete
chimesFF: Warning: Adding penalty in 2B Cheby calc, r < rmin+penalty_dist 3.01409 3.05200 pair type: 0
chimesFF: 	...Penalty potential = 5.44715
                 0.9        9     287.738458164793    -37861.4278737753    -38104.1551874422     242.727313666961     64314.9301451083     2464.55697854686     1.69877592701403    -35549.7540526161     75617.3620321377     57063.1651593927     60264.2632437945          12.23900032         15.074000359         13.358706116 
Updating chimesFF neighbor lists...
	Rank 0 3-body list size: 7447
	Rank 0 4-body list size: 0
	...update complete
chimesFF: Warning: Adding penalty in 2B Cheby calc, r < rmin+penalty_dist 3.01574 3.05200 pair type: 0
chimesFF: 	...Penalty potential = 4.76626
                   1       10     284.961998996414    -37861.4243132684    -38101.8094913733     240.385178104878     63138.7951024705     2464.55697854686     1.69877592701403    -35592.0243557685     72486.8417343308     56650.0591065482     60279.4844665324          12.23900032         15.074000359         13.358706116 
Updating chimesFF neighbor lists...
	Rank 0 3-body list size: 7443
	Rank 0 4-body list size: 0
	...update complete
chimesFF: Warning: Adding penalty in 2B Cheby calc, r < rmin+penalty_dist 3.01751 3.05200 pair type: 0
chimesFF: 	...Penalty potential = 4.10156
                 1.1       11     281.971943668622    -37861.4224288518    -38099.2852882439     237.862859392046     61952.0964253485     2464.55697854686     1.69877592701403    -35634.6760241012     69315.2306072004     56254.2261400993     60286.8325287457          12.23900032         15.074000359         13.358706116 
Updating chimesFF neighbor lists...
	Rank 0 3-body list size: 7447
	Rank 0 4-body list size: 0
	...update complete
chimesFF: Warning: Adding penalty in 2B Cheby calc, r < rmin+penalty_dist 3.01939 3.05200 pair type: 0
chimesFF: 	...Penalty potential = 3.46698
                 1.2       12       278.8045334954    -37861.4202916254    -38096.6112212118     235.190929586308     60759.7153217157     2464.55697854686     1.69877592701403    -35677.5316832822     66129.3354870948     55865.6436140424       60284.16686401          12.23900032         15.074000359         13.358706116 
Updating chimesFF neighbor lists...
	Rank 0 3-body list size: 7473
	Rank 0 4-body list size: 0
	...update complete
chimesFF: Warning: Adding penalty in 2B Cheby calc, r < rmin+penalty_dist 3.02137 3.05200 pair type: 0
chimesFF: 	...Penalty potential = 2.87416
                 1.3       13     275.496196139457    -37861.4179306229    -38093.8180485665     232.400117943562     59577.0732528365     2464.55697854686     1.69877592701403    -35720.0370682145     62972.8738748492      55487.443208657     60270.9026750032          12.23900032         15.074000359         13.358706116 
Updating chimesFF neighbor lists...
	Rank 0 3-body list size: 7472
	Rank 0 4-body list size: 0
	...update complete
chimesFF: Warning: Adding penalty in 2B Cheby calc, r < rmin+penalty_dist 3.02343 3.05200 pair type: 0
chimesFF: 	...Penalty potential = 2.33220
                 1.4       14     272.086750228421    -37861.4153806117    -38090.9393948451     229.524014233419     58418.8452090742     2464.55697854686     1.69877592701403    -35761.6647499653     59887.3071345906     55122.4739139056     60246.7545787263          12.23900032         15.074000359         13.358706116 
Updating chimesFF neighbor lists...
	Rank 0 3-body list size: 7489
	Rank 0 4-body list size: 0
	...update complete
chimesFF: Warning: Adding penalty in 2B Cheby calc, r < rmin+penalty_dist 3.02556 3.05200 pair type: 0
chimesFF: 	...Penalty potential = 1.84756
                 1.5       15     268.618644588713    -37861.4126881906    -38088.0111151709     226.598426980298     57298.1228069566     2464.55697854686     1.69877592701403    -35801.9442226949     56910.1240574143     54773.1783870573     60211.0659763983          12.23900032         15.074000359         13.358706116 
Updating chimesFF neighbor lists...
	Rank 0 3-body list size: 7489
	Rank 0 4-body list size: 0
	...update complete
chimesFF: Warning: Adding penalty in 2B Cheby calc, r < rmin+penalty_dist 3.02776 3.05200 pair type: 0
chimesFF: 	...Penalty potential = 1.42412
                 1.6       16     265.136055651929    -37861.4099034366    -38085.0705254998      223.66062206321     56226.9914149687     2464.55697854686     1.69877592701403    -35840.4411516512     54075.4310191782     54441.9335345646     60163.6096911633          12.23900032         15.074000359         13.358706116 
Updating chimesFF neighbor lists...
	Rank 0 3-body list size: 7488
	Rank 0 4-body list size: 0
	...update complete
chimesFF: Warning: Adding penalty in 2B Cheby calc, r < rmin+penalty_dist 3.03001 3.05200 pair type: 0
chimesFF: 	...Penalty potential = 1.06330
                 1.7       17     261.683881899829    -37861.4070776446    -38082.1555521051     220.748474460476     55215.7232228312     2464.55697854686     1.69877592701403    -35876.7863744486     51412.9286049262     54130.7411324368     60103.4999311306          12.23900032         15.074000359         13.358706116 
Updating chimesFF neighbor lists...
	Rank 0 3-body list size: 7488
	Rank 0 4-body list size: 0
	...update complete
chimesFF: Warning: Adding penalty in 2B Cheby calc, r < rmin+penalty_dist 3.03230 3.05200 pair type: 0
chimesFF: 	...Penalty potential = 0.76429
                 1.8       18     258.306703443061    -37861.4042649772    -38079.3038555595     217.899590582341     54272.9924010823     2464.55697854686     1.69877592701403    -35910.6681692295     48947.8149679851     53841.1358356349     60030.0263996269          12.23900032         15.074000359         13.358706116 
Updating chimesFF neighbor lists...
	Rank 0 3-body list size: 7464
	Rank 0 4-body list size: 0
	...update complete
chimesFF: Warning: Adding penalty in 2B Cheby calc, r < rmin+penalty_dist 3.03463 3.05200 pair type: 0
chimesFF: 	...Penalty potential = 0.52432
                 1.9       19     255.047743062199    -37861.4015162558     -38076.551948093     215.150431837143     53406.2139590639     2464.55697854686     1.69877592701403    -35941.8200688711     46701.2927043105     53574.6192853023      59942.729887579          12.23900032         15.074000359         13.358706116 
Updating chimesFF neighbor lists...
	Rank 0 3-body list size: 7462
	Rank 0 4-body list size: 0
	...update complete
chimesFF: Warning: Adding penalty in 2B Cheby calc, r < rmin+penalty_dist 3.03698 3.05200 pair type: 0
chimesFF: 	...Penalty potential = 0.33898
                   2       20     251.947861146621    -37861.3988779365    -38073.9343447291     212.535466792664      52621.483958004     2464.55697854686     1.69877592701403    -35970.0230088838     44690.7080010724      53332.674289393     59841.0695835466          12.23900032         15.074000359         13.358706116 
Updating chimesFF neighbor lists...
	Rank 0 3-body list size: 7448
	Rank 0 4-body list size: 0
	...update complete
chimesFF: Warning: Adding penalty in 2B Cheby calc, r < rmin+penalty_dist 3.03935 3.05200 pair type: 0
chimesFF: 	...Penalty potential = 0.20258
                 2.1       21     249.044620095927    -37861.3963961245    -38071.4827780585     210.086381933945     51923.4903318759     2464.55697854686     1.69877592701403    -35995.1085367955     42929.6245856539     53116.1277035657      59724.718706408          12.23900032         15.074000359         13.358706116 
Updating chimesFF neighbor lists...
	Rank 0 3-body list size: 7473
	Rank 0 4-body list size: 0
	...update complete
chimesFF: Warning: Adding penalty in 2B Cheby calc, r < rmin+penalty_dist 3.04173 3.05200 pair type: 0
chimesFF: 	...Penalty potential = 0.10839
                 2.2       22     246.371458810186    -37861.3941000878    -38069.2254853764     207.831385288642     51315.9747756533     2464.55697854686     1.69877592701403    -36016.9421939985     41428.5929915108      52925.631891749     59593.6994436999          12.23900032         15.074000359         13.358706116 
Updating chimesFF neighbor lists...
	Rank 0 3-body list size: 7474
	Rank 0 4-body list size: 0
	...update complete
chimesFF: Warning: Adding penalty in 2B Cheby calc, r < rmin+penalty_dist 3.04412 3.05200 pair type: 0
chimesFF: 	...Penalty potential = 0.04902
                 2.3       23     243.957031886145     -37861.392015275    -38067.1866642682     205.794648993273     50801.5280348942     2464.55697854686     1.69877592701403    -36035.4308866818     40194.5023743117     52762.0834865725     59447.9982437985          12.23900032         15.074000359         13.358706116 
Updating chimesFF neighbor lists...
	Rank 0 3-body list size: 7471
	Rank 0 4-body list size: 0
	...update complete
chimesFF: Warning: Adding penalty in 2B Cheby calc, r < rmin+penalty_dist 3.04651 3.05200 pair type: 0
chimesFF: 	...Penalty potential = 0.01658
                 2.4       24     241.824698882782    -37861.3901588697     -38065.386037323     203.995878453349     50381.8348082091     2464.55697854686     1.69877592701403     -36050.514078847     39232.0359320921     52625.8001446954     59287.6683478399          12.23900032         15.074000359         13.358706116 
Updating chimesFF neighbor lists...
	Rank 0 3-body list size: 7468
	Rank 0 4-body list size: 0
	...update complete
chimesFF: Warning: Adding penalty in 2B Cheby calc, r < rmin+penalty_dist 3.04890 3.05200 pair type: 0
chimesFF: 	...Penalty potential = 0.00299
                 2.5       25     239.992180868887    -37861.3885369007    -38063.8385595181     202.450022617477      50058.242798312     2464.55697854686     1.69877592701403    -36062.1433359962     38544.1345331382     52517.3646493792     59113.2292124185          12.23900032         15.074000359         13.358706116 
Updating chimesFF neighbor lists...
	Rank 0 3-body list size: 7468
	Rank 0 4-body list size: 0
	...update complete
chimesFF: Warning: Adding penalty in 2B Cheby calc, r < rmin+penalty_dist 3.05128 3.05200 pair type: 0
chimesFF: 	...Penalty potential = 0.00004
                 2.6       26     238.471389426295     -37861.387146493    -38062.5542762227      201.16712972974     49831.7013875698     2464.55697854686     1.69877592701403    -36070.2845315704     38132.2917953932     52437.3812611807     58925.4311061356          12.23900032         15.074000359         13.358706116 
Updating chimesFF neighbor lists...
	Rank 0 3-body list size: 7468
	Rank 0 4-body list size: 0
	...update complete
                 2.7       27     237.267252779129    -37861.3865083163    -38061.5378654047     200.151357088437     49679.5317366722     2464.55697854686     1.69877592701403    -36075.7533325669     37933.5170582153      52381.642467199     58723.4356846025          12.23900032         15.074000359         13.358706116 
Updating chimesFF neighbor lists...
	Rank 0 3-body list size: 7468
	Rank 0 4-body list size: 0
	...update complete
                 2.8       28     236.374487342857    -37861.3862126804    -38060.7844603046     199.398247624157     49534.1035435753     2464.55697854686     1.69877592701403    -36080.9801676467     37762.3571425591     52336.5093994548     58503.4440887121          12.23900032         15.074000359         13.358706116 
Updating chimesFF neighbor lists...
	Rank 0 3-body list size: 7449
	Rank 0 4-body list size: 0
	...update complete
chimesFF: Warning: Adding penalty in 2B Cheby calc, r < rmin+penalty_dist 1.747521 1.748000 pair type: 8
chimesFF: 	...Penalty potential = 0.000011
                 2.9       29     235.778876083035    -37861.3861119645    -38060.2819202484     198.895808283903     49393.1770291166     2464.55697854686     1.69877592701403    -36086.0453936511     37609.9384739824     52303.1753270331     58266.4172863345          12.23900032         15.074000359         13.358706116 
Updating chimesFF neighbor lists...
	Rank 0 3-body list size: 7446
	Rank 0 4-body list size: 0
	...update complete
chimesFF: Warning: Adding penalty in 2B Cheby calc, r < rmin+penalty_dist 1.746560 1.748000 pair type: 8
chimesFF: 	...Penalty potential = 0.000299
                   3       30     235.460878081129    -37861.3861784726    -38060.0137334224     198.627554949794     49264.5818450777     2464.55697854686     1.69877592701403    -36090.6675614318     37488.6609988381     52290.7104333443     58014.3741030507          12.23900032         15.074000359         13.358706116 
Updating chimesFF neighbor lists...
	Rank 0 3-body list size: 7445
	Rank 0 4-body list size: 0
	...update complete
chimesFF: Warning: Adding penalty in 2B Cheby calc, r < rmin+penalty_dist 1.745605 1.748000 pair type: 8
chimesFF: 	...Penalty potential = 0.001374
                 3.1       31     235.396319739856    -37861.3863612082    -38059.9594567269     198.573095518642     49150.7226678023     2464.55697854686     1.69877592701403    -36094.7601886249     37401.4698050585     52301.3685259265     57749.3296724219          12.23900032         15.074000359         13.358706116 
Updating chimesFF neighbor lists...
	Rank 0 3-body list size: 7442
	Rank 0 4-body list size: 0
	...update complete
chimesFF: Warning: Adding penalty in 2B Cheby calc, r < rmin+penalty_dist 1.744657 1.748000 pair type: 8
chimesFF: 	...Penalty potential = 0.003736
                 3.2       32     235.557161760688    -37861.3866284838    -38060.0954053844     198.708776900583     49052.7517049701     2464.55697854686     1.69877592701403    -36098.2818297013     37348.9113519381     52336.0431123017     57473.3006506706          12.23900032         15.074000359         13.358706116 
Updating chimesFF neighbor lists...
	Rank 0 3-body list size: 7421
	Rank 0 4-body list size: 0
	...update complete
chimesFF: Warning: Adding penalty in 2B Cheby calc, r < rmin+penalty_dist 1.743717 1.748000 pair type: 8
chimesFF: 	...Penalty potential = 0.007857
                 3.3       33     235.912107681708    -37861.3869462997    -38060.3951446626     199.008198362892     48971.8657733396     2464.55697854686     1.69877592701403     -36101.189433434     37331.6194419996     52395.5652962477     57188.4125817714          12.23900032         15.074000359         13.358706116 
Updating chimesFF neighbor lists...
	Rank 0 3-body list size: 7420
	Rank 0 4-body list size: 0
	...update complete
chimesFF: Warning: Adding penalty in 2B Cheby calc, r < rmin+penalty_dist 1.742786 1.748000 pair type: 8
chimesFF: 	...Penalty potential = 0.014177
                 3.4       34     236.427205504163    -37861.3872826669    -38060.8300017106     199.442719043644     48909.0572542631     2464.55697854686     1.69877592701403    -36103.4472986358     37350.0504183034     52480.3097268413     56896.8116176445          12.23900032         15.074000359         13.358706116 
Updating chimesFF neighbor lists...
	Rank 0 3-body list size: 7420
	Rank 0 4-body list size: 0
	...update complete
chimesFF: Warning: Adding penalty in 2B Cheby calc, r < rmin+penalty_dist 1.741864 1.748000 pair type: 8
chimesFF: 	...Penalty potential = 0.023098
                 3.5       35     237.066468346295    -37861.3876020696    -38061.3695835858     199.981981516194     48865.5399917177     2464.55697854686     1.69877592701403    -36105.0117605535     37404.8151067072     52590.8919343693     56600.9129340765          12.23900032         15.074000359         13.358706116 
Updating chimesFF neighbor lists...
	Rank 0 3-body list size: 7419
	Rank 0 4-body list size: 0
	...update complete
chimesFF: Warning: Adding penalty in 2B Cheby calc, r < rmin+penalty_dist 1.740955 1.748000 pair type: 8
chimesFF: 	...Penalty potential = 0.034972
[...]
chimesFF: Warning: Adding penalty in 2B Cheby calc, r < rmin+penalty_dist 0.750421 0.753000 pair type: 2
chimesFF: 	...Penalty potential = 0.001715
	Rank 0 3-body list size: 7930
	Rank 0 4-body list size: 0
	...update complete
                46.9      469     255.761377862098    -37851.6134550984    -38067.3658873043     215.752432205892     53723.2821234885     2464.55697854686     1.69877592701403    -35920.6356154052     48668.4716472433     55861.2582530566     56640.1164701656          12.23900032         15.074000359         13.358706116 
Updating chimesFF neighbor lists...
chimesFF: Warning: Adding penalty in 2B Cheby calc, r < rmin+penalty_dist 1.440077 1.443000 pair type: 4
chimesFF: 	...Penalty potential = 0.002496
	Rank 0 3-body list size: 7930
	Rank 0 4-body list size: 0
	...update complete
                  47      470     255.177985110184    -37851.5703689544    -38066.8306689775     215.260300023118     53630.5005796866     2464.55697854686     1.69877592701403    -35923.9273795892     48437.5470641336     55789.2538202141     56664.7008547121          12.23900032         15.074000359         13.358706116 
Updating chimesFF neighbor lists...
chimesFF: Warning: Adding penalty in 2B Cheby calc, r < rmin+penalty_dist 1.439575 1.443000 pair type: 4
chimesFF: 	...Penalty potential = 0.004018
	Rank 0 3-body list size: 7925
	Rank 0 4-body list size: 0
	...update complete
                47.1      471     254.614205027038    -37851.5292540274    -38066.3139665119     214.784712484512     53552.9023119757     2464.55697854686     1.69877592701403    -35926.6753819579     48214.7628448651     55726.5738859922     56717.3702050699          12.23900032         15.074000359         13.358706116 
Updating chimesFF neighbor lists...
chimesFF: Warning: Adding penalty in 2B Cheby calc, r < rmin+penalty_dist 1.439081 1.443000 pair type: 4
chimesFF: 	...Penalty potential = 0.006020
	Rank 0 3-body list size: 7921
	Rank 0 4-body list size: 0
	...update complete
                47.2      472     254.087455613923    -37851.4882187579    -38065.8285816381     214.340362880233     53476.9669312933     2464.55697854686     1.69877592701403    -35929.3636947764     47992.1766288299     55668.6612622106     56770.0629028395          12.23900032         15.074000359         13.358706116 
Updating chimesFF neighbor lists...
chimesFF: Warning: Adding penalty in 2B Cheby calc, r < rmin+penalty_dist 1.438596 1.443000 pair type: 4
chimesFF: 	...Penalty potential = 0.008541
	Rank 0 3-body list size: 7935
	Rank 0 4-body list size: 0
	...update complete
                47.3      473      253.61051313432    -37851.4472706624    -38065.3852995356     213.938028873212     53402.4462669676     2464.55697854686     1.69877592701403    -35932.0012455687     47770.6191104146     55614.8877341806     56821.8319563076          12.23900032         15.074000359         13.358706116 
Updating chimesFF neighbor lists...
chimesFF: Warning: Adding penalty in 2B Cheby calc, r < rmin+penalty_dist 1.438122 1.443000 pair type: 4
chimesFF: 	...Penalty potential = 0.011610
	Rank 0 3-body list size: 7938
	Rank 0 4-body list size: 0
	...update complete
                47.4      474     253.195536921928    -37851.4064155545    -38064.9943832579     213.587967703384     53329.5223274238     2464.55697854686     1.69877592701403    -35934.5814982129     47551.0416024973     55565.0165084884     56872.5088712856          12.23900032         15.074000359         13.358706116 
Updating chimesFF neighbor lists...
chimesFF: Warning: Adding penalty in 2B Cheby calc, r < rmin+penalty_dist 1.437658 1.443000 pair type: 4
chimesFF: 	...Penalty potential = 0.015243
	Rank 0 3-body list size: 7939
	Rank 0 4-body list size: 0
	...update complete
                47.5      475     252.853802552559    -37851.3656551368    -38064.6653462365     213.299691099715     53258.0150852458     2464.55697854686     1.69877592701403    -35937.1109251434     47334.2764704306     55518.0836528389     56921.6851324678          12.23900032         15.074000359         13.358706116 
Updating chimesFF neighbor lists...
chimesFF: Warning: Adding penalty in 2B Cheby calc, r < rmin+penalty_dist 1.437207 1.443000 pair type: 4
chimesFF: 	...Penalty potential = 0.019442
	Rank 0 3-body list size: 7938
	Rank 0 4-body list size: 0
	...update complete
                47.6      476     252.595460103265     -37851.324989282    -38064.4067506371     213.081761355033     53188.0723207898     2464.55697854686     1.69877592701403    -35939.5842145586     47121.1224957091     55473.7164900874     56969.3779765729          12.23900032         15.074000359         13.358706116 
Updating chimesFF neighbor lists...
chimesFF: Warning: Adding penalty in 2B Cheby calc, r < rmin+penalty_dist 1.436769 1.443000 pair type: 4
chimesFF: 	...Penalty potential = 0.024195
	Rank 0 3-body list size: 7939
	Rank 0 4-body list size: 0
	...update complete
                47.7      477     252.429297155867     -37851.284415383    -38064.2260067861     212.941591403091      53119.999936129     2464.55697854686     1.69877592701403     -35941.990368802     46912.7666895499     55431.8720062743     57015.3611125627          12.23900032         15.074000359         13.358706116 
Updating chimesFF neighbor lists...
chimesFF: Warning: Adding penalty in 2B Cheby calc, r < rmin+penalty_dist 1.436345 1.443000 pair type: 4
chimesFF: 	...Penalty potential = 0.029475
	Rank 0 3-body list size: 7939
	Rank 0 4-body list size: 0
	...update complete
                47.8      478     252.362539531931    -37851.2439255073     -38064.129202232     212.885276724726     53054.1730971145     2464.55697854686     1.69877592701403    -35944.3158953417       46710.92164643     55392.1395402656     57059.4581046478          12.23900032         15.074000359         13.358706116 
Updating chimesFF neighbor lists...
chimesFF: Warning: Adding penalty in 2B Cheby calc, r < rmin+penalty_dist 1.435936 1.443000 pair type: 4
chimesFF: 	...Penalty potential = 0.035242
	Rank 0 3-body list size: 7940
	Rank 0 4-body list size: 0
	...update complete
                47.9      479     252.400712988324    -37851.2035080728    -38064.1209867513     212.917478678482     52990.4556016123     2464.55697854686     1.69877592701403    -35946.5656781138     46516.0769915127     55354.0251254432     57101.2646878811          12.23900032         15.074000359         13.358706116 
Updating chimesFF neighbor lists...
chimesFF: Warning: Adding penalty in 2B Cheby calc, r < rmin+penalty_dist 1.435544 1.443000 pair type: 4
chimesFF: 	...Penalty potential = 0.041442
	Rank 0 3-body list size: 7941
	Rank 0 4-body list size: 0
	...update complete
                  48      480     252.547536285547    -37851.1631498115    -38064.2044841078     213.041334296344     52928.9936672183     2464.55697854686     1.69877592701403    -35948.7344483458      46329.096096321      55316.978644488     57140.9062608459          12.23900032         15.074000359         13.358706116 
Updating chimesFF neighbor lists...
chimesFF: Warning: Adding penalty in 2B Cheby calc, r < rmin+penalty_dist 1.435170 1.443000 pair type: 4
chimesFF: 	...Penalty potential = 0.048005
	Rank 0 3-body list size: 7940
	Rank 0 4-body list size: 0
	...update complete
                48.1      481     252.804860244742    -37851.1228352156    -38064.3812400897     213.258404874103     52869.8672499137     2464.55697854686     1.69877592701403    -35950.8193166696     46150.8783072179     55280.5815790283     57178.1418634947          12.23900032         15.074000359         13.358706116 
Updating chimesFF neighbor lists...
chimesFF: Warning: Adding penalty in 2B Cheby calc, r < rmin+penalty_dist 1.434814 1.443000 pair type: 4
chimesFF: 	...Penalty potential = 0.054851
	Rank 0 3-body list size: 7940
	Rank 0 4-body list size: 0
	...update complete
                48.2      482     253.172644611601    -37851.0825472468    -38064.6512037013     213.568656454465     52813.3793342467     2464.55697854686     1.69877592701403    -35952.8093758623     45982.4453527731     55244.6960136681      57212.996636299          12.23900032         15.074000359         13.358706116 
Updating chimesFF neighbor lists...
chimesFF: Warning: Adding penalty in 2B Cheby calc, r < rmin+penalty_dist 1.434478 1.443000 pair type: 4
chimesFF: 	...Penalty potential = 0.061887
	Rank 0 3-body list size: 7937
	Rank 0 4-body list size: 0
	...update complete
                48.3      483     253.648978216017    -37851.0422627355    -38065.0127395687     213.970476833105     52759.7889799334     2464.55697854686     1.69877592701403    -35954.6952913617     45825.1178603923     55209.0653342263     57245.1837451815          12.23900032         15.074000359         13.358706116 
Updating chimesFF neighbor lists...
chimesFF: Warning: Adding penalty in 2B Cheby calc, r < rmin+penalty_dist 1.434163 1.443000 pair type: 4
chimesFF: 	...Penalty potential = 0.069010
	Rank 0 3-body list size: 7941
	Rank 0 4-body list size: 0
	...update complete
                48.4      484     254.230159273714    -37851.0019600164    -38065.4627033151     214.460743298661     52709.2904293732     2464.55697854686     1.69877592701403     -35956.470059841     45679.7193270979     55173.5551962043     57274.5967648173          12.23900032         15.074000359         13.358706116 
Updating chimesFF neighbor lists...
chimesFF: Warning: Adding penalty in 2B Cheby calc, r < rmin+penalty_dist 1.433870 1.443000 pair type: 4
chimesFF: 	...Penalty potential = 0.076111
	Rank 0 3-body list size: 7941
	Rank 0 4-body list size: 0
	...update complete
                48.5      485     254.910805924549    -37850.9616155538    -38065.9965314332     215.034915879439     52662.0894870772     2464.55697854686     1.69877592701403    -35958.1262605257     45546.6719107361     55138.4321810659     57301.1643694295          12.23900032         15.074000359         13.358706116 
Updating chimesFF neighbor lists...
chimesFF: Warning: Adding penalty in 2B Cheby calc, r < rmin+penalty_dist 1.433599 1.443000 pair type: 4
chimesFF: 	...Penalty potential = 0.083074
	Rank 0 3-body list size: 7941
	Rank 0 4-body list size: 0
	...update complete
                48.6      486     255.684003602736    -37850.9212060352    -38066.6083676956     215.687161660406      52618.507086985     2464.55697854686     1.69877592701403    -35959.6523347634     45427.0028984996     55103.5349972924     57324.9833651629          12.23900032         15.074000359         13.358706116 
Updating chimesFF neighbor lists...
chimesFF: Warning: Adding penalty in 2B Cheby calc, r < rmin+penalty_dist 1.433353 1.443000 pair type: 4
chimesFF: 	...Penalty potential = 0.089782
	Rank 0 3-body list size: 7942
	Rank 0 4-body list size: 0
	...update complete
                48.7      487     256.541468579938    -37850.8807103507    -38067.2912030938     216.410492743109     52578.9555036927     2464.55697854686     1.69877592701403    -35961.0334430436     45321.7446403042     55069.1693033791     57345.9525673947          12.23900032         15.074000359         13.358706116 
Updating chimesFF neighbor lists...
chimesFF: Warning: Adding penalty in 2B Cheby calc, r < rmin+penalty_dist 1.433131 1.443000 pair type: 4
chimesFF: 	...Penalty potential = 0.096118
	Rank 0 3-body list size: 7943
	Rank 0 4-body list size: 0
	...update complete
                48.8      488     257.473709480602    -37850.8401071475    -38068.0370096426     217.196902495048     52543.6518777887     2464.55697854686     1.69877592701403    -35962.2617593216     45231.2035829863     55035.6519913136     57364.1000590661          12.23900032         15.074000359         13.358706116 
Updating chimesFF neighbor lists...
chimesFF: Warning: Adding penalty in 2B Cheby calc, r < rmin+penalty_dist 1.432935 1.443000 pair type: 4
chimesFF: 	...Penalty potential = 0.101966
	Rank 0 3-body list size: 7920
	Rank 0 4-body list size: 0
	...update complete
                48.9      489     258.470218939438    -37850.7993747293    -38068.8369019553     218.037527226026     52512.7000531519     2464.55697854686     1.69877592701403    -35963.3335294369     45155.9585251201     55002.7364323774     57379.4052019582          12.23900032         15.074000359         13.358706116 
Updating chimesFF neighbor lists...
chimesFF: Warning: Adding penalty in 2B Cheby calc, r < rmin+penalty_dist 1.432765 1.443000 pair type: 4
chimesFF: 	...Penalty potential = 0.107218
	Rank 0 3-body list size: 7919
	Rank 0 4-body list size: 0
	...update complete
                  49      490     259.519677716963    -37850.7584973533    -38069.6813157271      218.92281837375     52486.4038439446     2464.55697854686     1.69877592701403    -35964.2378176436     45096.5644752683     54970.6592340545     57391.9878225108          12.23900032         15.074000359         13.358706116 
Updating chimesFF neighbor lists...
chimesFF: Warning: Adding penalty in 2B Cheby calc, r < rmin+penalty_dist 1.432622 1.443000 pair type: 4
chimesFF: 	...Penalty potential = 0.111774
	Rank 0 3-body list size: 7919
	Rank 0 4-body list size: 0
	...update complete
                49.1      491     260.610141972971    -37850.7174586742    -38070.5601591561     219.842700481963     52465.1478705241     2464.55697854686     1.69877592701403    -35964.9607831729     45053.6008824797     54939.9127397515     57401.9299893411          12.23900032         15.074000359         13.358706116 
Updating chimesFF neighbor lists...
chimesFF: Warning: Adding penalty in 2B Cheby calc, r < rmin+penalty_dist 1.432507 1.443000 pair type: 4
chimesFF: 	...Penalty potential = 0.115546
	Rank 0 3-body list size: 7939
	Rank 0 4-body list size: 0
	...update complete
                49.2      492     261.729223521096    -37850.6762474268    -38071.4629706844     220.786723257657     52449.4054265427     2464.55697854686     1.69877592701403    -35965.4854031493     45027.5742919572      54911.022767706     57409.6192199647          12.23900032         15.074000359         13.358706116 
Updating chimesFF neighbor lists...
chimesFF: Warning: Adding penalty in 2B Cheby calc, r < rmin+penalty_dist 1.432419 1.443000 pair type: 4
chimesFF: 	...Penalty potential = 0.118460
	Rank 0 3-body list size: 7939
	Rank 0 4-body list size: 0
	...update complete
                49.3      493     262.864277241123    -37850.6348489383    -38072.3790686046      221.74421966633     52439.8121886446     2464.55697854686     1.69877592701403    -35965.7888147517     45019.1781995558     54884.6622213753     57415.5961450025          12.23900032         15.074000359         13.358706116 
Updating chimesFF neighbor lists...
chimesFF: Warning: Adding penalty in 2B Cheby calc, r < rmin+penalty_dist 1.432360 1.443000 pair type: 4
chimesFF: 	...Penalty potential = 0.120458
	Rank 0 3-body list size: 7935
	Rank 0 4-body list size: 0
	...update complete
                49.4      494     264.002594206091    -37850.5932554001    -38073.2977242482     222.704468848072     52436.4938658638     2464.55697854686     1.69877592701403    -35965.8664918073     45028.3774869611     54860.9832261558     57420.1208844744          12.23900032         15.074000359         13.358706116 
Updating chimesFF neighbor lists...
chimesFF: Warning: Adding penalty in 2B Cheby calc, r < rmin+penalty_dist 1.432329 1.443000 pair type: 4
chimesFF: 	...Penalty potential = 0.121499
	Rank 0 3-body list size: 7951
	Rank 0 4-body list size: 0
	...update complete
                49.5      495     265.131572123795    -37850.5514601759    -38074.2083000727     223.656839896771     52439.9679471343     2464.55697854686     1.69877592701403    -35965.6998275564     45055.3813186788     54840.5841146837     57423.9384080402          12.23900032         15.074000359         13.358706116 
Updating chimesFF neighbor lists...
chimesFF: Warning: Adding penalty in 2B Cheby calc, r < rmin+penalty_dist 1.432328 1.443000 pair type: 4
chimesFF: 	...Penalty potential = 0.121561
	Rank 0 3-body list size: 7951
	Rank 0 4-body list size: 0
	...update complete
                49.6      496     266.238889849646    -37850.5094601116    -38075.1003991854     224.590939073801     52450.4243520693     2464.55697854686     1.69877592701403    -35965.2819925577     45100.4618096858     54824.0699230797     57426.7413234425          12.23900032         15.074000359         13.358706116 
Updating chimesFF neighbor lists...
chimesFF: Warning: Adding penalty in 2B Cheby calc, r < rmin+penalty_dist 1.432354 1.443000 pair type: 4
chimesFF: 	...Penalty potential = 0.120643
	Rank 0 3-body list size: 7955
	Rank 0 4-body list size: 0
	...update complete
                49.7      497      267.31267232932    -37850.4672561029    -38075.9640050515     225.496748948561     52467.9502692781     2464.55697854686     1.69877592701403    -35964.6098538835     45163.5174218348     54811.6031860451     57428.7301999545          12.23900032         15.074000359         13.358706116 
Updating chimesFF neighbor lists...
chimesFF: Warning: Adding penalty in 2B Cheby calc, r < rmin+penalty_dist 1.432410 1.443000 pair type: 4
chimesFF: 	...Penalty potential = 0.118761
	Rank 0 3-body list size: 7955
	Rank 0 4-body list size: 0
	...update complete
                49.8      498     268.341628855082    -37850.4248459791    -38076.7895910063     226.364745027261     52492.5684321907     2464.55697854686     1.69877592701403    -35963.6825922547     45244.3541553265     54803.3077842492     57430.0433569963          12.23900032         15.074000359         13.358706116 
Updating chimesFF neighbor lists...
chimesFF: Warning: Adding penalty in 2B Cheby calc, r < rmin+penalty_dist 1.432494 1.443000 pair type: 4
chimesFF: 	...Penalty potential = 0.115952
	Rank 0 3-body list size: 7957
	Rank 0 4-body list size: 0
	...update complete
                49.9      499     269.315206364962    -37850.3822339961    -38077.5682590675     227.186025071392     52524.5400274231     2464.55697854686     1.69877592701403    -35962.4908240875      45342.820206351     54799.7722404564     57431.0276354618          12.23900032         15.074000359         13.358706116 
Updating chimesFF neighbor lists...
chimesFF: Warning: Adding penalty in 2B Cheby calc, r < rmin+penalty_dist 1.432607 1.443000 pair type: 4
chimesFF: 	...Penalty potential = 0.112271
	Rank 0 3-body list size: 7958
	Rank 0 4-body list size: 0
	...update complete
                  50      500     270.223746015118    -37850.3394233071    -38078.2918644844     227.952441177355     52563.8696398567     2464.55697854686     1.69877592701403    -35961.0343877403     45458.5380261169     54801.0906690079     57431.9802244453          12.23900032         15.074000359         13.358706116 
Loop time of 10.2126 on 36 procs for 500 steps with 284 atoms

Performance: 0.423 ns/day, 56.737 hours/ns, 48.959 timesteps/s
-0.0% CPU use with 36 MPI tasks x no OpenMP threads

MPI task timing breakdown:
Section |  min time  |  avg time  |  max time  |%varavg| %total
---------------------------------------------------------------
Pair    | 0.90162    | 4.449      | 8.387      |  68.6 | 43.56
Neigh   | 1.1163     | 1.1514     | 1.1996     |   2.1 | 11.27
Comm    | 0.15829    | 4.1017     | 7.6189     |  71.3 | 40.16
Output  | 0.50581    | 0.50603    | 0.51176    |   0.1 |  4.96
Modify  | 0.0031142  | 0.0035468  | 0.0039918  |   0.4 |  0.03
Other   |            | 0.0008886  |            |       |  0.01

Nlocal:        7.88889 ave          11 max           4 min
Histogram: 1 4 5 0 5 5 0 8 5 3
Nghost:        678.667 ave         697 max         659 min
Histogram: 2 3 3 6 4 2 5 4 6 1
Neighs:        0.00000 ave           0 max           0 min
Histogram: 36 0 0 0 0 0 0 0 0 0
FullNghs:      1297.56 ave        1815 max         659 min
Histogram: 1 4 5 1 4 5 1 7 5 3

Total # of neighbors = 46712
Ave neighs/atom = 164.47887
Neighbor list builds = 500
Dangerous builds not checked
Total wall time: 0:00:10
