ITEM: TIMESTEP
0
ITEM: NUMBER OF ATOMS
287
ITEM: BOX BOUNDS xy xz yz pp pp pp
-2.8097637880000002e+00 1.2239000320000001e+01 0.0000000000000000e+00
0.0000000000000000e+00 1.5074000358999999e+01 -2.8097637880000002e+00
0.0000000000000000e+00 1.3358706116000000e+01 0.0000000000000000e+00
ITEM: ATOMS id type x y z vx vy vz
60 3 1.93639 0.0180156 1.43858 0.00242052 -0.00411858 -0.0143806
67 3 0.0493516 3.29205 3.09791 0.0165535 0.0156826 0.0132518
75 3 3.07711 3.5963 2.93546 -0.0122121 0.00556479 0.0144814
117 3 2.23633 1.18681 4.3396 0.000864952 0.00471058 -0.00712655
143 3 1.33849 2.61726 1.1185 -0.00613675 0.0170247 0.0271603
145 3 -0.546322 1.70802 4.42062 -0.0153363 0.0226577 -0.00781308
178 3 0.912626 0.223356 3.5736 0.012707 -0.0148942 -0.0168593
190 5 1.71463 0.284661 0.508961 0.000769046 0.00160874 -0.00612998
217 5 3.71542 2.02085 0.872795 -0.00103449 -0.000526275 -0.0035622
266 5 1.26136 3.54977 1.38302 -0.00217929 -0.000437772 0.00067726
93 3 -1.65756 1.9651 8.88128 0.012515 -0.0151379 -0.00869817
105 3 -1.08175 3.76811 8.21357 0.0098636 0.0153211 0.010539
118 3 2.29583 2.74767 4.68625 -0.00724152 -0.00272312 0.0216054
146 3 -0.91108 0.47065 5.35444 -0.0011782 0.0258917 0.0137181
159 3 1.58671 1.30411 6.48103 -0.0119956 -0.0223415 0.00209938
160 3 0.270124 0.493367 6.83376 -0.00664168 0.0113505 -0.0268368
163 3 0.521756 1.42283 8.46031 0.0170887 -0.0180712 -0.0111158
253 5 2.54446 1.86427 5.0113 0.00364345 -0.00282718 -0.00127751
267 5 -0.375145 0.753861 4.55352 0.00214219 -0.00603558 0.00687467
274 5 1.19428 0.668362 7.12187 -0.00090668 0.00518656 0.00086617
6 1 0.398904 0.879622 12.9034 -6.57877e-05 -0.00107645 -0.00367328
10 2 -2.04902 2.46357 12.0287 -0.000492348 0.000119987 0.00205475
74 3 1.60683 3.20696 9.04776 0.0231227 0.0102608 -0.012342
98 3 0.727197 0.0629002 9.85432 -0.0228725 0.023994 0.0185009
125 3 0.605061 3.71115 11.8178 0.0229215 0.0213003 -0.00660108
164 3 0.250947 1.97965 9.94357 0.0240839 0.0245692 0.000397869
196 5 1.59519 1.67661 11.5883 -0.00257076 -0.00147737 -0.00284352
200 5 -0.779018 2.28256 12.0687 0.00426616 -0.00191664 0.00300659
276 5 -0.0723823 1.35715 9.26453 -0.0021457 0.00098457 -0.00412541
83 3 -0.150124 7.18447 1.38784 -0.0228557 -0.0223467 0.0245451
84 3 -0.35587 6.2289 2.61436 -0.0142671 -0.0079905 0.0200724
91 3 2.40072 4.96329 1.06945 0.0183181 0.0172539 -0.0040589
92 3 1.86103 6.16589 1.86423 0.0100861 -0.0200748 0.0178373
144 3 0.370522 3.87508 1.08978 0.00414501 -0.0191323 -0.00908354
236 5 0.288907 6.81619 2.19687 -0.00276671 0.00125212 0.00177124
240 5 2.65727 5.87521 1.33836 0.00614382 -0.0039098 0.000183906
3 1 1.66309 6.49837 5.92114 -0.00191611 0.00250188 -0.00431625
11 2 -0.895101 5.10661 5.16951 0.00518027 -0.000242609 -0.00556187
57 3 0.674898 7.19833 7.93902 -0.0223279 -0.0142695 -0.0217904
106 3 -0.123406 4.90806 7.69856 0.0184899 0.00608961 0.026267
187 5 0.300786 6.89668 7.06895 0.00276572 -0.00512226 0.00288824
197 5 2.82063 5.74315 4.64153 0.00626732 -0.00189399 -0.000803148
201 5 0.353311 5.30229 5.02294 -0.00320858 0.00462027 0.000480296
216 5 2.30457 5.15343 7.16857 0.0064899 0.00340164 -0.00425269
247 5 -0.148161 3.97794 7.99957 0.000539759 -0.00662181 0.00109881
26 2 -1.98853 4.59853 10.5802 -0.00555747 0.00305606 0.0064233
66 3 -0.928047 4.71414 10.3597 0.0251129 -0.0246977 0.014071
119 3 -2.25229 6.95952 12.6244 -0.0157969 -0.00446961 -0.00486993
120 3 -1.29257 7.46987 11.4928 0.00280951 0.0226284 -0.00875578
126 3 1.01117 5.29149 11.758 0.015228 0.00605239 0.00253756
155 3 0.415866 6.89411 12.6068 -0.00822303 0.0245621 -0.00843472
156 3 1.14101 7.15863 11.2353 0.00128155 0.00308697 0.0071814
254 5 -1.3738 6.77986 12.1976 -0.000961552 0.0031027 -0.00207896
257 5 1.17096 4.37417 11.3791 0.00623776 -0.00432602 -0.00486441
272 5 1.28703 6.80555 12.1446 0.00467012 0.00297598 -0.00313046
13 2 0.202857 8.4582 4.30518 0.000112601 0.00741627 -0.00370214
41 2 0.302571 9.65046 3.42065 -0.00222047 -0.00651039 -0.00660124
49 2 1.37199 10.5016 3.46646 0.00306555 -0.00580836 -0.000247668
77 3 2.28147 10.4174 4.05002 0.021655 0.0189347 0.0118838
99 3 2.66035 9.0383 0.365297 0.00454147 0.0237513 -0.0129999
100 3 2.53091 7.54272 0.8811 -0.0163498 0.00346247 0.0260239
171 3 3.2214 8.55345 2.29533 0.0241874 0.0129066 -0.0260963
172 3 3.15783 8.39719 3.87673 -0.0132017 0.00589678 0.0134317
244 5 2.37203 8.48544 1.13704 -0.00655697 -0.00553832 0.000641282
40 2 -1.54398 10.9563 8.54239 0.00733539 0.00276729 0.00328315
61 3 2.58064 8.66646 6.52153 -0.0236566 -0.0232967 -0.0200626
96 3 1.46718 11.0894 6.20166 -0.00803674 -0.0177991 0.0200606
203 5 1.30969 7.96462 4.67867 -6.74547e-05 0.00569256 0.00417705
210 5 -1.14944 9.09508 7.204 -0.00348098 -0.00043199 0.00173391
211 5 -0.945848 8.07003 4.7285 0.0038474 0.00527204 -0.00450713
242 5 2.16633 10.5081 6.57171 0.00563263 0.00182098 0.00407349
109 3 0.828612 8.45903 9.66596 -0.0110542 -0.0124767 0.0167
111 3 -1.68727 9.15689 10.5357 0.000970106 0.0211803 0.00129054
112 3 -1.39947 7.93996 9.48521 0.0229923 0.00824294 -0.00353302
150 3 0.280639 10.587 12.0128 0.00119265 -0.0138572 0.0139032
176 3 -1.16018 9.90401 12.2951 -0.0266132 0.020847 -0.0190773
249 5 1.34868 7.65809 9.42688 -0.00365913 -0.000722971 0.00034609
250 5 -1.01097 8.55897 10.1589 -0.00173611 0.004493 0.00391788
269 5 -0.153771 9.73767 12.2359 -0.00234322 0.00490911 0.00710231
37 2 -0.0829043 11.4173 2.09206 -0.00492935 0.00352431 -0.00142067
177 3 1.8597 14.1168 3.7988 -0.00803523 0.00751037 -0.0050549
179 3 1.12814 12.8412 0.189011 0.0090098 0.000578679 -0.0198487
207 5 0.00502859 13.6287 1.28686 0.00456461 0.00133145 0.00292933
227 5 1.19324 11.5872 2.64257 -0.00516016 8.99057e-06 -0.0028276
283 5 1.83218 14.9881 3.32631 -0.00459269 0.0063617 0.00260562
52 2 -0.27445 12.7449 8.80139 -0.00171132 0.00747722 0.00628348
80 3 0.602172 13.355 8.59368 0.000506595 0.000352474 0.00831519
139 3 1.05463 13.6074 5.88962 -0.0271302 -0.0229233 0.0186113
140 3 0.058711 13.0287 4.81729 0.000142127 0.00270503 -0.010545
230 5 -0.331164 11.5379 8.17195 -0.000996096 -0.000670726 -0.000508922
264 5 0.985271 12.9294 5.19098 -0.00633805 -0.00677247 -0.00411189
16 2 -1.94255 13.8943 10.41 -0.00520247 -0.00612254 -0.00248143
44 2 -1.41643 12.9225 9.60238 0.00520485 0.000747021 0.000105269
97 3 -0.887409 15.0601 11.0045 0.00983082 0.0115848 0.0264979
151 3 0.0579888 12.2406 12.5793 -0.013532 -0.0189943 0.0121767
152 3 1.28232 12.5706 11.5562 0.0234119 0.00125675 -0.0039933
180 3 -2.0322 11.51 12.6405 -0.00563168 0.0250433 -0.0190026
206 5 0.959702 14.4228 10.5433 -0.000518958 -0.00180581 -0.0020273
243 5 -0.0847528 14.7532 11.5402 0.0059745 0.00691491 0.00270405
270 5 1.07606 12.2628 12.4549 0.00113111 0.00290223 0.00703271
284 5 -1.31382 12.131 12.9919 0.000893312 0.00265642 -0.00413759
23 2 4.94015 2.31254 1.12067 0.00380403 -0.00491521 0.000638701
55 2 5.09231 3.35643 2.08799 0.00392322 0.00107629 0.00237082
123 3 5.32226 0.346977 3.20683 0.00211105 -0.0075477 0.0211489
124 3 4.17209 0.994546 4.05762 -0.02728 -0.0245416 0.0124502
193 5 7.98247 0.139778 0.0504934 0.000390353 -0.00444581 0.000640679
221 5 5.96717 1.77953 0.570563 -0.0010356 -0.0054086 -0.00287955
256 5 5.10456 0.723331 4.08682 0.00580684 0.00447842 0.00610571
90 3 4.75587 0.608172 8.17366 0.0161723 0.00926273 0.0106041
101 3 3.77667 1.52846 6.25307 -0.00163034 -0.0226679 -0.012495
102 3 5.09047 2.33251 6.42158 -0.011428 -0.00337657 -0.0181632
129 3 5.66737 3.19738 4.55971 -0.0133613 0.00365221 -0.0131486
135 3 5.9056 0.676535 6.50867 0.0229676 -0.023726 -0.0140829
245 5 4.51233 1.66273 6.88492 0.00173541 -0.00349057 0.000776619
259 5 6.14211 3.15036 5.40638 0.000735873 -0.00658306 0.00686296
18 2 2.76309 1.38069 11.1542 -0.00279377 -0.00503734 -0.00727081
30 2 4.70709 2.54642 10.0371 0.00647306 -0.0030983 -0.00627195
34 2 3.36727 2.29623 10.1819 -0.00755135 -0.000495428 -0.00677791
46 2 2.66511 3.14607 9.26668 -0.00611331 -0.0031153 -0.00661308
70 3 5.57759 2.08989 10.4907 0.020077 -0.0200216 -0.018875
224 5 3.44978 0.386146 11.5603 0.00344159 -0.00339377 -0.00646823
232 5 4.89255 3.56425 9.11942 -0.0019071 0.000934453 0.00504354
239 5 5.26001 0.202064 8.91812 -0.00391491 -0.000910228 -0.00189402
19 2 4.06054 5.93036 4.41571 -0.00111476 0.00052295 0.00654241
31 2 6.02513 5.09743 3.11716 0.00129075 -0.00440031 0.000204135
35 2 4.71145 5.03871 3.48169 -0.00672698 0.00156847 0.000558182
47 2 4.12583 3.88443 2.89692 0.00566529 0.00446888 0.0077596
71 3 6.7549 5.86541 3.33643 -0.000804637 0.0122345 0.00343447
127 3 6.74135 3.89435 0.176816 0.0260174 0.0209357 -0.00663453
132 3 6.52489 6.71034 0.591067 -0.00754829 -0.0155139 0.0187629
233 5 6.34107 4.01827 2.29319 -0.00584555 0.00318821 0.00678538
260 5 6.44989 7.41116 1.26975 0.0022965 0.00552057 -0.00244036
7 1 4.67701 7.49533 6.73069 0.00376149 0.00502115 0.00423386
22 2 3.4507 4.9886 7.68428 -0.00344944 0.00697568 -0.00654057
54 2 3.60749 3.89522 8.63985 0.00103552 0.00133341 -0.00340388
130 3 6.32791 4.0606 5.70621 0.00168079 -0.0167631 -0.0220069
148 3 6.31328 4.61405 7.90459 -0.0103535 0.000492463 0.00839987
192 5 6.4783 7.17699 6.79731 0.000225957 0.00671929 -0.00262733
220 5 4.49598 5.68599 7.45131 0.00480947 -0.00331826 -0.000846881
225 5 4.81453 6.78175 4.98041 -0.00594387 -0.0013579 6.18076e-05
86 3 5.12483 7.2443 12.0453 0.0169468 0.00450008 0.0114621
128 3 2.62337 4.3018 11.705 0.000276831 0.0233971 -0.000710454
133 3 3.78333 6.00773 11.213 -0.0240557 -0.000564698 0.0227668
134 3 3.03102 7.22693 11.7751 0.0250768 0.0248349 -0.0201888
258 5 3.66524 4.38359 11.7343 0.00429094 0.00252232 -0.00563272
261 5 3.81538 6.99993 11.2225 -0.00214623 0.00592831 -0.00271414
273 5 3.97573 4.76953 13.0963 0.00411036 0.00263242 0.00443425
131 3 5.90137 8.12038 0.82496 -0.00382896 0.0117766 0.0228234
153 3 6.47159 9.71746 2.66268 0.0182687 0.00762667 -0.0201576
154 3 4.89089 9.45433 2.93238 0.000885296 0.0183449 0.00171189
167 3 5.30203 9.94123 1.05238 -0.0234568 -0.00273104 -0.00218209
185 3 7.17865 7.81129 3.19697 0.00629239 0.0154016 -0.00351335
271 5 5.59543 10.1296 2.57914 -0.00135162 -0.00185333 -0.0040448
278 5 5.30944 9.53942 0.117614 0.00650827 -0.00361575 -0.00182816
280 5 3.79816 8.5152 3.15366 0.000927911 -0.00639396 -0.00109537
21 2 6.02272 9.99551 5.8027 0.00460584 -0.00169714 0.0053456
53 2 5.91298 11.2192 4.99959 0.00435041 0.000729142 0.000778518
95 3 2.81419 11.1696 6.92037 -0.00738998 0.0189186 0.0155052
191 5 2.8651 7.7252 6.61112 -0.00667733 0.00420154 -0.00545298
219 5 4.9763 9.33309 6.07712 1.67205e-05 0.00587127 2.04439e-05
226 5 4.5752 8.18382 8.50406 -0.000403019 -0.00338292 -0.00269793
20 2 5.39202 8.99325 9.06434 -0.00267786 -0.00652989 -0.00141299
32 2 3.52322 10.3496 9.96469 0.000245035 -0.00167924 0.00493893
36 2 4.80364 9.83811 10.1241 0.00682863 -0.00267735 -0.000591191
48 2 5.3281 10.3349 11.3044 0.00759533 -0.00314864 0.00358714
56 2 4.26127 11.0554 12.0099 0.00747738 -0.0042471 0.00747112
72 3 2.83415 10.2421 9.13065 -0.000554719 -0.000381478 -0.0165571
110 3 2.29108 7.87839 9.2656 -0.00625021 0.0251632 0.0268769
149 3 1.65956 9.78845 13.0451 0.0139525 0.0174373 0.0142654
168 3 3.73826 10.4522 12.7727 -0.016414 0.0202109 0.0126336
234 5 3.16293 11.1608 10.9507 0.00309564 0.00534795 -0.00591814
8 1 6.17025 14.9202 0.0439607 -0.000646185 0.00517816 -0.000740979
17 2 6.91244 13.5994 2.43548 0.00585481 0.00379231 0.00148089
29 2 4.93467 12.7706 3.74826 0.00669088 -0.0036213 0.000693965
33 2 6.28214 12.8548 3.51281 -0.00674588 0.000800271 0.0074654
45 2 6.91317 11.8832 4.34061 0.0028951 -0.00160595 0.000471592
69 3 4.09937 13.3106 3.31496 -0.0198575 -0.0229065 0.0259861
194 5 4.3753 14.6794 0.115394 0.00534484 -0.000844679 0.00109924
223 5 6.2379 14.584 1.95301 -0.00100223 0.00605812 -0.00454414
181 3 3.99836 13.0616 6.97047 -0.0106229 0.0147763 -0.00764757
182 3 4.10327 12.7319 8.48311 -0.00984077 -0.0265019 0.00306271
231 5 4.66715 11.7822 4.67492 -0.00663495 0.00224923 0.00522191
285 5 3.48574 12.6925 7.71001 -0.00292253 0.00544154 0.00147618
24 2 4.59541 12.3993 12.5583 -0.00301723 -0.00410386 0.00573755
64 3 1.35998 13.7282 13.2264 0.0078114 -0.00603973 -0.0217867
89 3 4.71488 14.6052 9.36078 0.0167288 0.00657661 0.00418096
113 3 6.03094 12.1093 9.10633 -0.015212 -0.0219139 0.0222711
114 3 5.90036 12.708 10.591 0.0117858 -0.0143471 -0.0128745
222 5 3.62766 13.0787 13.0095 0.00501905 0.00326941 -0.00187565
251 5 5.54048 12.7578 9.68489 -3.27675e-05 -0.00186121 0.000794196
2 1 12.1388 0.171843 0.283639 0.000297908 -0.000951515 0.00216617
15 2 10.4648 1.24276 2.18638 0.00644941 -0.00441322 0.00527005
27 2 11.2507 3.29609 3.41494 -0.00754385 -0.00125057 -0.00228502
43 2 10.1788 2.44845 2.93863 0.00141463 0.00128914 -0.00240602
51 2 9.0183 2.93406 3.46321 -0.0076468 -0.00386477 -0.0019
63 3 8.21783 1.01353 0.392347 0.0120733 0.00266759 0.0167985
79 3 8.00152 2.59539 3.32576 0.0241314 0.00292323 -0.00909562
169 3 8.68338 0.0610406 3.5176 -0.0130169 -0.00724489 0.0219404
205 5 9.58313 0.321962 2.04876 -0.00487065 0.00413683 0.00558071
213 5 11.6488 1.16315 1.70324 -0.00690035 0.00518245 0.000349586
94 3 9.49988 2.35597 7.77993 0.00536484 0.0195373 0.0185848
104 3 9.95851 0.645441 6.87947 -0.0182754 -0.0225734 -0.0103744
136 3 7.04053 0.158009 5.49078 0.00153195 -0.00137928 0.0105628
170 3 8.89813 0.694281 4.93533 -0.0205913 0.00936874 -0.0131928
173 3 8.63581 3.00759 6.01452 -0.00320244 -0.0181201 -0.0126473
174 3 7.9209 1.64907 6.49401 -3.46248e-05 -0.0133991 -0.00279831
241 5 9.81912 2.57079 8.69984 0.00541066 0.00662507 0.0068125
246 5 10.7161 0.0341564 6.77997 -0.00342252 -0.00674249 0.00537731
262 5 6.86907 0.457745 6.41863 -0.00287641 -0.00228887 -0.00416239
281 5 8.82109 2.10672 6.34833 -0.00237718 -0.00287671 0.00417013
38 2 9.67018 3.66576 11.3903 0.00229209 0.00786385 0.00571432
59 3 7.44338 0.121008 12.1441 -0.0202305 -0.000251789 -0.0254475
157 3 5.93924 2.93236 13.0147 -0.00185016 0.00341598 0.0106859
158 3 6.52299 2.48483 12.88 0.0254875 -0.0205836 0.00103779
161 3 7.91632 0.506753 9.55775 0.0155829 0.00766273 -0.0159567
162 3 8.512 1.88084 9.76989 0.023024 -0.00646345 0.0242247
208 5 9.32866 1.67849 12.5465 0.00309159 0.00587589 -0.00464016
275 5 7.77189 1.31544 10.097 0.00470493 -0.00248852 0.00490648
39 2 10.6926 4.19514 4.25926 -0.00388312 -0.00654606 -0.00372904
115 3 8.52119 6.29642 1.35654 0.0114641 -0.0046743 0.00180617
116 3 8.89865 5.54264 2.6911 -0.0104827 0.0184948 0.00551152
138 3 10.4394 5.19105 1.1522 0.00661052 0.000251251 0.00318873
229 5 9.27071 4.0743 4.25892 -0.0033287 0.00458961 -0.00657825
252 5 9.23277 6.1704 2.01943 0.00359396 0.00308134 -0.00399256
263 5 11.0891 4.60874 0.697626 0.00589933 -0.00656331 -0.00455861
1 1 10.8059 7.36767 6.59852 -0.00438662 -0.000870135 -0.00485264
62 3 6.77089 6.24122 6.92487 0.010852 -0.00594621 0.0180196
147 3 7.85153 4.43617 8.00473 -0.00612107 0.00695489 0.0150102
204 5 8.08716 7.03092 8.79474 0.00238245 -0.00569094 0.00359973
209 5 10.5654 5.65271 6.02167 -0.00359089 0.00638074 0.00670818
212 5 10.3072 6.77525 8.46772 -0.00628137 -0.00170468 -0.0051813
268 5 7.13614 4.61738 7.37364 -0.00690019 -0.00598299 -0.00195254
14 2 9.19705 6.46722 9.04761 -0.000280951 0.00258404 -0.00172221
42 2 9.17869 5.42677 10.0749 -0.00136035 -0.00612073 -0.00383313
50 2 8.02647 4.98135 10.6569 -0.000866731 0.000467949 0.00145419
78 3 7.00508 5.34754 10.5968 0.0250918 0.00384355 -0.0252965
107 3 7.66112 7.53238 12.9129 -0.0185497 0.016958 0.0016125
137 3 7.84012 4.25595 13.2637 -0.0188396 0.0141485 0.000677549
228 5 8.27959 3.87981 11.4635 -0.000930049 -0.00302931 -0.00629811
25 2 11.6116 10.2222 2.48895 0.00621536 -0.00720165 -0.006245
65 3 10.6547 9.83829 2.13872 -0.023899 0.00592353 0.0253646
121 3 8.46781 8.7676 0.758819 0.0219118 0.0134158 -0.0046657
122 3 8.45159 9.6639 2.03968 -0.0116065 0.00607291 0.0191128
186 3 8.70544 7.72416 3.05657 -0.0128499 0.00876999 -0.0090494
255 5 8.69774 9.66157 1.09715 0.00155384 -0.00627113 0.00322039
287 5 8.00751 8.14325 3.61281 0.00303467 -0.00316289 0.00104945
4 1 7.74132 8.30256 7.40665 -0.00540815 0.00465781 -0.000483531
12 2 10.2512 9.75991 7.89484 0.000179371 0.00423784 0.00804868
58 3 8.68821 7.7294 5.25786 0.0248783 0.0268408 -0.0113496
81 3 7.53878 11.0926 7.71814 0.0133596 0.0103846 -0.011201
141 3 10.699 10.2247 4.99678 -0.0112692 -0.0148292 -0.0188978
142 3 9.18245 9.92466 5.2162 -0.000246171 -0.0124357 -0.00521554
188 5 9.03309 7.72286 6.18083 -0.000844312 -0.004078 0.00225714
198 5 6.61807 9.1466 8.77962 0.00612079 -0.00643935 0.00503846
202 5 9.0284 9.46739 8.13351 0.00155938 0.00437718 -0.00618025
215 5 7.21664 9.65614 6.13479 0.00673661 0.00239388 0.00545774
265 5 9.81794 10.6442 5.04698 0.00323412 -0.00205518 -0.0043647
76 3 6.37294 10.2643 11.6244 0.0201564 0.000614322 -0.02265
85 3 6.05718 8.47166 12.1345 -0.0104702 0.00982067 -0.0228423
108 3 8.83195 8.63219 12.7728 0.0173739 0.0154357 0.0223088
175 3 9.04939 10.2646 13.1373 0.0225234 0.005932 0.00356965
237 5 5.96284 7.57737 12.5247 -0.000634324 -0.00433934 0.0047772
248 5 8.58162 7.75137 13.1951 0.000681264 -0.00426052 -0.00263084
282 5 9.46029 10.1243 12.267 -0.00414404 -0.00651505 -0.0037757
5 1 9.19133 13.9523 0.614588 -0.00288418 -0.00303678 0.00160313
9 2 11.5206 12.5641 1.45616 -0.00671126 -0.0037657 -0.00114735
73 3 7.97647 11.6876 4.40234 -6.2606e-05 0.00874738 -0.00610579
88 3 10.8778 14.0837 3.45961 -0.00864822 -0.00872242 -0.025349
195 5 8.06762 13.2575 2.02236 -0.00580153 0.00133797 0.00258008
199 5 10.3136 12.4956 1.10271 0.00484761 0.0058281 0.00244076
238 5 10.7907 13.266 3.98175 -0.00509015 -0.00438232 -0.00342674
82 3 7.38256 12.677 7.89596 0.0148167 -0.0131768 0.0133948
87 3 10.0061 13.4514 4.53877 -0.00444122 0.00774063 -0.0198586
103 3 10.3296 14.1819 6.68613 -0.0201243 -0.0197361 0.0196552
165 3 7.5518 14.7064 7.64052 0.0114346 -0.00847703 -0.00469791
183 3 9.06616 12.6949 7.28898 -0.0113571 -0.0153022 0.0207083
184 3 9.6505 11.9199 5.9894 0.00769893 0.0186274 -0.00964545
235 5 6.89896 11.8255 7.71729 -0.00336529 -0.00617538 0.00562634
277 5 7.83512 14.1559 8.43395 -0.00435911 0.00444728 0.00461528
279 5 8.47429 15.0144 4.47338 0.000548997 -0.00243755 -0.00366015
286 5 9.54379 12.812 6.45098 -0.00184009 0.00112515 -0.00361508
28 2 10.0305 11.7115 9.46564 -0.00582871 -0.00664603 -0.00381018
68 3 9.10379 11.4397 9.9785 -0.0183109 -0.0187144 0.0114905
166 3 6.98814 14.1365 8.94876 -0.00588489 -0.0176289 -0.019254
189 5 7.71362 14.7728 12.9819 -0.00556433 0.00532466 0.000887181
214 5 9.44329 14.2162 11.1737 0.00207949 -0.00233674 0.00150447
218 5 5.81396 12.7903 12.5642 -0.000817868 0.000892112 -0.00617125
ITEM: TIMESTEP
5
ITEM: NUMBER OF ATOMS
287
ITEM: BOX BOUNDS xy xz yz pp pp pp
-2.8097637880000002e+00 1.2239000320000001e+01 0.0000000000000000e+00
0.0000000000000000e+00 1.5074000358999999e+01 -2.8097637880000002e+00
0.0000000000000000e+00 1.3358706116000000e+01 0.0000000000000000e+00
ITEM: ATOMS id type x y z vx vy vz
60 3 1.9374 0.0160977 1.43146 0.00166234 -0.0035782 -0.014037
67 3 0.0574288 3.29963 3.10466 0.0154828 0.0146226 0.0137997
75 3 3.07131 3.59909 2.94285 -0.0107674 0.00565669 0.0150648
117 3 2.23674 1.18925 4.33616 0.000750629 0.00504206 -0.00663842
143 3 1.33548 2.62561 1.13219 -0.00582977 0.0158695 0.0274316
145 3 -0.553812 1.71906 4.41701 -0.0144752 0.0208842 -0.00653598
178 3 0.91885 0.215884 3.56501 0.011791 -0.0148286 -0.0174442
190 5 1.715 0.285462 0.505943 0.000719396 0.00159816 -0.0059458
217 5 3.71492 2.02059 0.871009 -0.000967206 -0.000507417 -0.00358052
266 5 1.26028 3.54958 1.38338 -0.00213869 -0.000303959 0.000769543
93 3 -1.65088 1.95735 8.87699 0.0140081 -0.0156879 -0.0085305
274 5 1.19383 0.670937 7.12234 -0.000927135 0.0050961 0.00101954
118 3 2.29203 2.7463 4.69703 -0.00797949 -0.00268775 0.0214837
146 3 -0.911764 0.483624 5.36136 -0.0015713 0.0259389 0.0139642
159 3 1.58073 1.29302 6.48151 -0.011703 -0.0217176 -0.000464307
160 3 0.2667 0.498922 6.82023 -0.00684447 0.0108741 -0.0271369
163 3 0.530198 1.41381 8.45491 0.0165507 -0.0180213 -0.0103149
253 5 2.5463 1.86284 5.01068 0.00370685 -0.00291002 -0.00120446
267 5 -0.374074 0.750853 4.55693 0.0021352 -0.00595757 0.00678501
6 1 0.398851 0.87909 12.9016 -0.00014288 -0.0010519 -0.00382455
10 2 -2.04922 2.4636 12.0298 -0.000282553 1.66306e-05 0.00216176
74 3 1.61816 3.21195 9.04188 0.0218264 0.00968194 -0.0112232
98 3 0.715567 0.0749794 9.8639 -0.0236271 0.0242499 0.0198622
125 3 0.616359 3.72157 11.8149 0.0219376 0.0199662 -0.00502322
164 3 0.262909 1.99203 9.94371 0.0235784 0.0246067 -0.000168725
196 5 1.59395 1.67587 11.5869 -0.00238971 -0.00150249 -0.00276235
200 5 -0.77691 2.28163 12.0702 0.00416137 -0.00180807 0.003035
276 5 -0.0734535 1.35765 9.26246 -0.00211856 0.00104309 -0.00416978
83 3 -0.16179 7.17331 1.39986 -0.0239016 -0.0221609 0.023294
84 3 -0.363147 6.22481 2.62418 -0.0145316 -0.00813408 0.0190165
91 3 2.40968 4.97182 1.06752 0.0174453 0.0165361 -0.00376036
92 3 1.86597 6.15559 1.87296 0.00970605 -0.0211243 0.0170664
144 3 0.372309 3.86552 1.08498 0.00288378 -0.0190052 -0.010134
236 5 0.287522 6.81681 2.19777 -0.00278378 0.00118974 0.00182986
240 5 2.66035 5.87327 1.33847 0.00618686 -0.00383753 0.000244322
3 1 1.66213 6.49961 5.91897 -0.00193406 0.00244216 -0.00437237
11 2 -0.892537 5.10647 5.16672 0.00504729 -0.000276667 -0.00556829
57 3 0.663722 7.19136 7.92865 -0.0221599 -0.0134427 -0.0192293
106 3 -0.114093 4.91092 7.71189 0.0187599 0.00525842 0.02707
187 5 0.302163 6.89413 7.07037 0.00272571 -0.0051007 0.00277623
197 5 2.82377 5.74221 4.64113 0.00626531 -0.00184685 -0.000787603
201 5 0.351717 5.30461 5.02318 -0.00315941 0.00466735 0.000486722
216 5 2.30779 5.15513 7.16643 0.00638827 0.00342059 -0.00431425
247 5 -0.147872 3.97465 8.00012 0.000631374 -0.00650645 0.00108533
105 3 -1.0772 3.77573 8.21864 0.00814716 0.0150963 0.00977474
26 2 -1.9913 4.60011 10.5834 -0.00549816 0.00327183 0.00625178
66 3 -0.91567 4.70184 10.3668 0.0240521 -0.0244837 0.0146478
119 3 -2.26024 6.95743 12.6218 -0.0158702 -0.00389016 -0.00547954
120 3 -1.29117 7.48121 11.4883 0.00275632 0.0225314 -0.0091076
126 3 1.01894 5.29422 11.7593 0.015861 0.00473964 0.00261303
155 3 0.411941 6.90646 12.6022 -0.00732362 0.0248135 -0.00973543
156 3 1.14161 7.16048 11.2383 0.00112167 0.00435024 0.00481958
254 5 -1.37429 6.78142 12.1966 -0.00100791 0.00313203 -0.00206368
257 5 1.1741 4.37204 11.3767 0.00637303 -0.00417876 -0.00494033
272 5 1.28936 6.80704 12.1431 0.00463798 0.00296487 -0.003027
13 2 0.202844 8.46197 4.30335 -0.000159242 0.00766105 -0.00361701
41 2 0.301441 9.64719 3.41736 -0.00228349 -0.00657792 -0.00656346
49 2 1.37357 10.4987 3.46634 0.00324076 -0.00576397 -0.000237094
77 3 2.29241 10.4271 4.0559 0.0218257 0.0196775 0.0114712
99 3 2.66243 9.05011 0.35853 0.00365874 0.0231457 -0.0137626
100 3 2.52257 7.54418 0.894248 -0.0169435 0.0021664 0.0264325
171 3 3.23345 8.55983 2.28256 0.0239883 0.0125466 -0.024854
172 3 3.15121 8.40019 3.88357 -0.0130769 0.00617802 0.0135808
244 5 2.36876 8.48271 1.13736 -0.00651739 -0.00534367 0.000619279
40 2 -1.54029 10.9577 8.54406 0.00740006 0.00282934 0.00341769
61 3 2.56896 8.65493 6.51158 -0.0231562 -0.0224852 -0.0197208
96 3 1.46312 11.0806 6.21185 -0.0082874 -0.0174897 0.0206456
203 5 1.30968 7.96743 4.68076 1.55939e-06 0.00557385 0.00416658
210 5 -1.15117 9.09486 7.20486 -0.00346128 -0.000444083 0.00171065
211 5 -0.943917 8.07266 4.72625 0.00386802 0.0052319 -0.00446559
242 5 2.16914 10.509 6.57375 0.00564117 0.00182628 0.00408647
109 3 0.82313 8.45284 9.67413 -0.0109108 -0.012223 0.0159708
111 3 -1.68689 9.16737 10.5357 0.000605443 0.0206507 -0.00103595
112 3 -1.38812 7.94404 9.48344 0.0223009 0.00805114 -0.00358182
150 3 0.281059 10.5804 12.0197 0.000631403 -0.0120432 0.0136376
176 3 -1.17264 9.91455 12.2854 -0.0229921 0.0212355 -0.0197202
249 5 1.34688 7.6577 9.42704 -0.00357224 -0.000829539 0.000321916
250 5 -1.01185 8.56121 10.1609 -0.00177418 0.00448289 0.00405786
269 5 -0.154957 9.74009 12.2395 -0.00243028 0.00476683 0.00722278
37 2 -0.0853987 11.4191 2.09135 -0.00504284 0.00355428 -0.00143199
177 3 1.85583 14.1207 3.79619 -0.00741312 0.00774491 -0.00532158
179 3 1.13201 12.842 0.179552 0.00639325 0.00273544 -0.0178517
207 5 0.00733544 13.6294 1.28831 0.0046564 0.00135597 0.00289165
227 5 1.19065 11.5872 2.64116 -0.00519564 -0.000101922 -0.0028195
283 5 1.8299 14.9913 3.32761 -0.00451954 0.00630334 0.00259191
52 2 -0.275343 12.7487 8.8046 -0.00185259 0.0077044 0.00656076
80 3 0.602366 13.3554 8.5979 0.000295355 0.00121961 0.00853555
139 3 1.04114 13.5959 5.89897 -0.0268475 -0.0232931 0.0187229
140 3 0.0590112 13.03 4.81209 0.0010043 0.00262599 -0.0102472
230 5 -0.331661 11.5375 8.17169 -0.00098884 -0.000690829 -0.000539348
264 5 0.982096 12.926 5.18894 -0.00635819 -0.00672864 -0.00404924
16 2 -1.94517 13.8912 10.4087 -0.00527485 -0.00622948 -0.00273297
44 2 -1.41383 12.9228 9.60242 0.00516519 0.000391491 5.93812e-05
97 3 -0.882461 15.0654 11.0178 0.00984385 0.00964861 0.0265022
151 3 0.051506 12.2316 12.5854 -0.0122637 -0.0170445 0.0121798
152 3 1.29386 12.5714 11.5542 0.0225973 0.00189267 -0.0041021
180 3 -2.03482 11.523 12.6312 -0.00487174 0.0268652 -0.0182154
206 5 0.95945 14.4218 10.5423 -0.00049036 -0.0019887 -0.00210668
243 5 -0.0817505 14.7567 11.5415 0.00604162 0.00689627 0.00255521
270 5 1.07664 12.2642 12.4585 0.00118944 0.00279129 0.00706001
284 5 -1.31338 12.1324 12.9898 0.000848654 0.00260172 -0.0042948
23 2 4.94206 2.31005 1.12095 0.00383107 -0.00503563 0.000491211
55 2 5.09431 3.35694 2.0892 0.00404375 0.000964414 0.00246771
123 3 5.32341 0.343219 3.21736 0.0025325 -0.00755152 0.0207966
124 3 4.15856 0.982239 4.06373 -0.0263764 -0.0248081 0.0119964
193 5 7.98266 0.137562 0.0508126 0.000364108 -0.00440004 0.000642356
221 5 5.96665 1.77683 0.569131 -0.00107671 -0.00539567 -0.00285029
256 5 5.10745 0.725576 4.08989 0.00574089 0.00451405 0.00617786
90 3 4.76366 0.612893 8.17883 0.0148372 0.00969341 0.00989645
101 3 3.77562 1.51718 6.24648 -0.00240324 -0.022386 -0.013689
102 3 5.08476 2.33099 6.41248 -0.0113786 -0.00274014 -0.0181845
129 3 5.66092 3.19928 4.55325 -0.0122092 0.00387242 -0.0122746
135 3 5.91692 0.664804 6.50133 0.0217774 -0.0230804 -0.0151984
245 5 4.5132 1.66097 6.88532 0.0017381 -0.00357018 0.000790783
259 5 6.14246 3.14704 5.40978 0.00064839 -0.00668506 0.0067296
18 2 2.76166 1.3782 11.1505 -0.00289317 -0.00495371 -0.00723756
30 2 4.71034 2.54494 10.0339 0.00651439 -0.00283986 -0.00625233
34 2 3.36346 2.29592 10.1785 -0.00769767 -0.00073735 -0.00680704
46 2 2.66208 3.14449 9.26337 -0.00598254 -0.00318707 -0.00660852
70 3 5.58777 2.0798 10.4813 0.0204907 -0.0202655 -0.0187433
224 5 3.45148 0.384463 11.5571 0.00336535 -0.00333677 -0.00649177
232 5 4.89161 3.56474 9.12193 -0.0018744 0.00101362 0.00497677
239 5 5.25809 0.201587 8.91719 -0.00376528 -0.000991421 -0.00179261
19 2 4.06001 5.9306 4.41901 -0.00102471 0.000447618 0.00663258
31 2 6.0258 5.09522 3.11726 0.00138678 -0.00442125 0.000205033
35 2 4.70806 5.03948 3.48201 -0.00681134 0.00151621 0.000699447
47 2 4.12866 3.8867 2.90075 0.00561059 0.00458991 0.00757002
71 3 6.75464 5.87129 3.33804 -0.000305474 0.0111694 0.00296656
127 3 6.75448 3.9044 0.17379 0.0264503 0.0189136 -0.0053053
132 3 6.52101 6.70248 0.60049 -0.00802238 -0.0158676 0.0188971
233 5 6.33812 4.01986 2.29661 -0.00594003 0.0031828 0.00689466
260 5 6.45103 7.41392 1.26853 0.00228596 0.0055199 -0.00244923
7 1 4.6789 7.49783 6.73281 0.00377343 0.00501204 0.00422709
22 2 3.44901 4.99211 7.681 -0.00329534 0.00703266 -0.00654061
54 2 3.60805 3.89589 8.63815 0.00118837 0.00137397 -0.00337903
130 3 6.32884 4.05241 5.6955 0.00213378 -0.0156705 -0.0206709
148 3 6.30822 4.61402 7.90899 -0.00974638 -0.000630699 0.00908083
192 5 6.47841 7.18035 6.79599 0.000248869 0.00671146 -0.00265618
220 5 4.49836 5.68435 7.45088 0.00471114 -0.00324001 -0.000889634
225 5 4.81153 6.78107 4.98044 -0.00602521 -0.00133375 6.46272e-05
86 3 5.13359 7.24654 12.0511 0.0178876 0.00435612 0.011733
128 3 2.62324 4.31354 11.7046 -0.000779099 0.0235309 -0.00107736
133 3 3.77141 6.00715 11.2247 -0.0235762 -0.00165689 0.0240144
134 3 3.04344 7.23926 11.7651 0.0242139 0.0246234 -0.0197983
258 5 3.66738 4.38485 11.7314 0.00428335 0.00254137 -0.00579539
261 5 3.81433 7.0029 11.2211 -0.00205922 0.00594071 -0.00282098
273 5 3.97781 4.77089 13.0985 0.0041903 0.00285573 0.00443556
131 3 5.89961 8.12602 0.836284 -0.00322546 0.0107374 0.0223844
153 3 6.48064 9.72119 2.65279 0.0176977 0.00736804 -0.0194008
154 3 4.89175 9.46375 2.93308 0.0024993 0.0192154 0.00117256
167 3 5.29036 9.93998 1.05099 -0.0231111 -0.00226771 -0.00337875
185 3 7.18205 7.81915 3.19538 0.00713756 0.0160065 -0.00290895
271 5 5.59476 10.1287 2.5771 -0.00130504 -0.00184714 -0.00412002
278 5 5.31273 9.53762 0.116713 0.00663799 -0.00358751 -0.00176867
280 5 3.79861 8.51199 3.15312 0.000850904 -0.00643474 -0.00105266
21 2 6.02502 9.99462 5.80537 0.00460314 -0.00185128 0.00531646
53 2 5.91514 11.2196 5.00003 0.00427841 0.00073805 0.000976471
95 3 2.81046 11.1791 6.92828 -0.00758951 0.0187758 0.0160782
191 5 2.86177 7.7273 6.60841 -0.0066314 0.00416718 -0.00540689
219 5 4.97629 9.33602 6.07714 -5.19575e-05 0.00581839 7.17134e-05
226 5 4.57502 8.18214 8.50273 -0.000315651 -0.00332881 -0.00264128
20 2 5.3907 8.98998 9.06368 -0.00258572 -0.00653046 -0.00125976
32 2 3.52337 10.3488 9.96707 0.000362049 -0.00186902 0.00456907
36 2 4.80697 9.83678 10.1237 0.00646985 -0.00264434 -0.00105581
48 2 5.33186 10.3333 11.3063 0.00743515 -0.00299067 0.00395818
56 2 4.26512 11.0531 12.0137 0.00792256 -0.00480486 0.00739531
72 3 2.83389 10.2418 9.12232 -0.000324036 -0.000729324 -0.0165573
110 3 2.28762 7.89114 9.27918 -0.00757232 0.0258147 0.0274305
149 3 1.66652 9.79716 13.052 0.01372 0.0174303 0.0134817
168 3 3.72999 10.4624 12.7789 -0.0166141 0.0205354 0.0120938
234 5 3.16447 11.1635 10.9478 0.00308026 0.00550463 -0.00570702
8 1 6.16994 14.9228 0.0435938 -0.00059489 0.00526223 -0.000726841
17 2 6.91535 13.6013 2.43622 0.00575766 0.00383524 0.00147753
29 2 4.93796 12.7687 3.74863 0.00643453 -0.00364441 0.000819176
33 2 6.27881 12.8552 3.51651 -0.00657672 0.000834938 0.00730305