LAMMPS (29 Oct 2020)
Reading data file ...
  triclinic box = (0.0000000 0.0000000 0.0000000) to (12.239000 15.074000 13.358706) with tilt (0.0000000 -2.8097638 0.0000000)
  3 by 4 by 3 MPI processor grid
  reading atoms ...
  287 atoms
  read_data CPU = 0.008 seconds
chimesFF: 
chimesFF: 01000011011010001001001010011010100010101010011 0100010101101110110011101101001011011101100101  
chimesFF: 
chimesFF:       _____  _      _____  __  __  ______   _____   ______                _                      
chimesFF:      / ____|| |    |_   _||  \/  ||  ____| / ____| |  ____|              (_)                    
chimesFF:     | |     | |__    | |  | \  / || |__   | (___   | |__    _ __    __ _  _  _ __    ___        
chimesFF:     | |     | '_ \   | |  | |\/| ||  __|   \___ \  |  __|  | '_ \  / _` || || '_ \  / _ \ 
chimesFF:     | |____ | | | | _| |_ | |  | || |____  ____) | | |____ | | | || (_| || || | | ||  __/        
chimesFF:      \_____||_| |_||_____||_|  |_||______||_____/  |______||_| |_| \__, ||_||_| |_| \___|     
chimesFF:                                                                     __/ |                        
chimesFF:                                                                    |___/                         
chimesFF: 
chimesFF:                      Copyright (C) 2020 R.K. Lindsey, L.E. Fried, N. Goldman                     
chimesFF: 
chimesFF: 01000011011010001001001010011010100010101010011 0100010101101110110011101101001011011101100101   
chimesFF: 

************************* WARNING (pair_style chimesFF) ************************
Assuming n-body interactions have longer cutoffs than all (n+1)-body interactions
************************* WARNING (pair_style chimesFF) ************************

chimesFF: Reading parameters from file: ../../../1-fit/ChIMES_params.txt
chimesFF: Using respective 2, 3, and 4-body orders of: 12 8 0
chimesFF: Note: Ignoring polynomial domain; assuming [-1,1]
chimesFF: Will consider 5 atom types:
chimesFF: 	0 Al
chimesFF: 	1 C
chimesFF: 	2 H
chimesFF: 	3 N
chimesFF: 	4 O
chimesFF: Will consider 15 atom pair types
chimesFF: Detected version 2 pair specification (no S_DELTA)
chimesFF: 	0 Al Al
chimesFF: 	1 C C
chimesFF: 	2 H H
chimesFF: 	3 N N
chimesFF: 	4 O O
chimesFF: 	5 Al C
chimesFF: 	6 Al H
chimesFF: 	7 Al N
chimesFF: 	8 Al O
chimesFF: 	9 C H
chimesFF: 	10 C N
chimesFF: 	11 C O
chimesFF: 	12 H N
chimesFF: 	13 H O
chimesFF: 	14 N O
chimesFF: Read the following pair type information:
chimesFF: 	Al Al r_cut_in: 2.75200 r_cut_out: 6.00000 MORSE 2.40000
chimesFF: 	C C r_cut_in: 0.95100 r_cut_out: 6.00000 MORSE 1.54000
chimesFF: 	H H r_cut_in: 0.45300 r_cut_out: 6.00000 MORSE 0.74000
chimesFF: 	N N r_cut_in: 0.93700 r_cut_out: 6.00000 MORSE 1.35000
chimesFF: 	O O r_cut_in: 1.14300 r_cut_out: 6.00000 MORSE 1.21000
chimesFF: 	Al C r_cut_in: 2.31000 r_cut_out: 6.00000 MORSE 2.00000
chimesFF: 	Al H r_cut_in: 1.96500 r_cut_out: 6.00000 MORSE 1.60000
chimesFF: 	Al N r_cut_in: 3.49800 r_cut_out: 6.00000 MORSE 1.90000
chimesFF: 	Al O r_cut_in: 1.44800 r_cut_out: 6.00000 MORSE 1.70000
chimesFF: 	C H r_cut_in: 0.69100 r_cut_out: 6.00000 MORSE 1.09000
chimesFF: 	C N r_cut_in: 0.99600 r_cut_out: 6.00000 MORSE 1.48000
chimesFF: 	C O r_cut_in: 0.85300 r_cut_out: 6.00000 MORSE 1.16000
chimesFF: 	H N r_cut_in: 0.67100 r_cut_out: 6.00000 MORSE 1.01000
chimesFF: 	H O r_cut_in: 0.54200 r_cut_out: 6.00000 MORSE 0.97000
chimesFF: 	N O r_cut_in: 1.04200 r_cut_out: 6.00000 MORSE 1.27000
chimesFF: Will use cutoff style TERSOFF
 0.95000
chimesFF: Will use penalty distance: 0.30000
chimesFF: Will use penalty scaling: 100000.00000
chimesFF: Will use single atom energy offsets: 
chimesFF: 	1 Al 0.00000
chimesFF: 	2 C -108.90174
chimesFF: 	3 H 0.00000
chimesFF: 	4 N -167.95251
chimesFF: 	5 O -244.30465
chimesFF: Read 2B parameters for pair: 0 Al Al
chimesFF: 	0 0.00000
chimesFF: 	1 0.00000
chimesFF: 	2 0.00000
chimesFF: 	3 0.00000
chimesFF: 	4 0.00000
chimesFF: 	5 0.00000
chimesFF: 	6 0.00000
chimesFF: 	7 0.00000
chimesFF: 	8 0.00000
chimesFF: 	9 0.00000
chimesFF: 	10 -0.38175
chimesFF: 	11 0.00000
chimesFF: Read 2B parameters for pair: 1 C C
chimesFF: 	0 0.00000
chimesFF: 	1 0.00000
chimesFF: 	2 2.38563
chimesFF: 	3 4.49284
chimesFF: 	4 -2.47542
chimesFF: 	5 -9.49562
chimesFF: 	6 -4.11891
chimesFF: 	7 3.93150
chimesFF: 	8 0.34066
chimesFF: 	9 -0.42333
chimesFF: 	10 -0.61850
chimesFF: 	11 1.32704
chimesFF: Read 2B parameters for pair: 2 H H
chimesFF: 	0 -0.02549
chimesFF: 	1 0.00000
chimesFF: 	2 0.00000
chimesFF: 	3 0.00000
chimesFF: 	4 -0.49675
chimesFF: 	5 0.00000
chimesFF: 	6 0.00000
chimesFF: 	7 -0.16426
chimesFF: 	8 0.00000
chimesFF: 	9 0.06181
chimesFF: 	10 0.41547
chimesFF: 	11 0.10732
chimesFF: Read 2B parameters for pair: 3 N N
chimesFF: 	0 0.00000
chimesFF: 	1 0.00000
chimesFF: 	2 0.00000
chimesFF: 	3 0.00000
chimesFF: 	4 -0.44084
chimesFF: 	5 0.00000
chimesFF: 	6 0.00000
chimesFF: 	7 0.00000
chimesFF: 	8 0.00000
chimesFF: 	9 -0.89874
chimesFF: 	10 0.00000
chimesFF: 	11 1.08805
chimesFF: Read 2B parameters for pair: 4 O O
chimesFF: 	0 0.00000
chimesFF: 	1 -4.64163
chimesFF: 	2 0.00000
chimesFF: 	3 5.63528
chimesFF: 	4 0.00000
chimesFF: 	5 -1.90275
chimesFF: 	6 0.00000
chimesFF: 	7 0.00000
chimesFF: 	8 0.03489
chimesFF: 	9 0.00000
chimesFF: 	10 -0.11975
chimesFF: 	11 0.33367
chimesFF: Read 2B parameters for pair: 5 Al C
chimesFF: 	0 0.00000
chimesFF: 	1 0.00000
chimesFF: 	2 0.00000
chimesFF: 	3 0.00000
chimesFF: 	4 -4.70684
chimesFF: 	5 0.00000
chimesFF: 	6 0.00000
chimesFF: 	7 -0.16952
chimesFF: 	8 0.00000
chimesFF: 	9 0.00000
chimesFF: 	10 -0.71744
chimesFF: 	11 0.46287
chimesFF: Read 2B parameters for pair: 6 Al H
chimesFF: 	0 0.00000
chimesFF: 	1 0.00000
chimesFF: 	2 -0.90225
chimesFF: 	3 -0.05134
chimesFF: 	4 0.00000
chimesFF: 	5 -0.03930
chimesFF: 	6 0.26432
chimesFF: 	7 0.21089
chimesFF: 	8 0.00000
chimesFF: 	9 0.00000
chimesFF: 	10 -0.11159
chimesFF: 	11 0.04203
chimesFF: Read 2B parameters for pair: 7 Al N
chimesFF: 	0 0.00000
chimesFF: 	1 0.00000
chimesFF: 	2 0.00000
chimesFF: 	3 0.00000
chimesFF: 	4 0.00000
chimesFF: 	5 0.00000
chimesFF: 	6 0.00000
chimesFF: 	7 0.00000
chimesFF: 	8 0.00000
chimesFF: 	9 0.00000
chimesFF: 	10 0.18132
chimesFF: 	11 0.00000
chimesFF: Read 2B parameters for pair: 8 Al O
chimesFF: 	0 0.00000
chimesFF: 	1 0.00000
chimesFF: 	2 1.91463
chimesFF: 	3 2.34233
chimesFF: 	4 0.00000
chimesFF: 	5 0.00000
chimesFF: 	6 -1.04294
chimesFF: 	7 0.00000
chimesFF: 	8 0.00000
chimesFF: 	9 0.00000
chimesFF: 	10 -0.09751
chimesFF: 	11 -0.06136
chimesFF: Read 2B parameters for pair: 9 C H
chimesFF: 	0 -1.44300
chimesFF: 	1 0.00000
chimesFF: 	2 3.86700
chimesFF: 	3 -0.21184
chimesFF: 	4 -7.78155
chimesFF: 	5 -4.82936
chimesFF: 	6 0.00000
chimesFF: 	7 1.15294
chimesFF: 	8 -0.63747
chimesFF: 	9 -0.13160
chimesFF: 	10 1.03466
chimesFF: 	11 0.59022
chimesFF: Read 2B parameters for pair: 10 C N
chimesFF: 	0 0.00000
chimesFF: 	1 0.17810
chimesFF: 	2 -12.65766
chimesFF: 	3 3.39668
chimesFF: 	4 3.84329
chimesFF: 	5 -3.32581
chimesFF: 	6 -6.61872
chimesFF: 	7 0.00000
chimesFF: 	8 -1.72245
chimesFF: 	9 -0.48552
chimesFF: 	10 -1.78790
chimesFF: 	11 0.00000
chimesFF: Read 2B parameters for pair: 11 C O
chimesFF: 	0 -4.32084
chimesFF: 	1 0.00000
chimesFF: 	2 9.64648
chimesFF: 	3 0.00000
chimesFF: 	4 -16.44186
chimesFF: 	5 -14.70186
chimesFF: 	6 -2.84244
chimesFF: 	7 -1.47255
chimesFF: 	8 -2.51158
chimesFF: 	9 -0.31105
chimesFF: 	10 0.86443
chimesFF: 	11 -0.24018
chimesFF: Read 2B parameters for pair: 12 H N
chimesFF: 	0 0.95416
chimesFF: 	1 0.00000
chimesFF: 	2 0.00000
chimesFF: 	3 -1.58805
chimesFF: 	4 -4.18107
chimesFF: 	5 -2.28325
chimesFF: 	6 0.00000
chimesFF: 	7 0.25305
chimesFF: 	8 0.00000
chimesFF: 	9 0.00000
chimesFF: 	10 0.61442
chimesFF: 	11 0.27682
chimesFF: Read 2B parameters for pair: 13 H O
chimesFF: 	0 6.77731
chimesFF: 	1 15.04400
chimesFF: 	2 0.00000
chimesFF: 	3 -21.57492
chimesFF: 	4 -27.33832
chimesFF: 	5 -14.04126
chimesFF: 	6 -4.53354
chimesFF: 	7 -0.96527
chimesFF: 	8 0.00000
chimesFF: 	9 1.63006
chimesFF: 	10 0.80204
chimesFF: 	11 0.50314
chimesFF: Read 2B parameters for pair: 14 N O
chimesFF: 	0 0.00000
chimesFF: 	1 -2.60604
chimesFF: 	2 0.00000
chimesFF: 	3 1.76741
chimesFF: 	4 0.00000
chimesFF: 	5 -1.48092
chimesFF: 	6 0.00000
chimesFF: 	7 0.00000
chimesFF: 	8 -1.64404
chimesFF: 	9 0.00000
chimesFF: 	10 0.45171
chimesFF: 	11 0.34385
chimesFF: Built the following 2-body pair "slow" map:
chimesFF: 	0 AlAl(i: 0)
chimesFF: 	5 AlC(i: 1)
chimesFF: 	6 AlH(i: 2)
chimesFF: 	7 AlN(i: 3)
chimesFF: 	8 AlO(i: 4)
chimesFF: 	5 CAl(i: 5)
chimesFF: 	1 CC(i: 6)
chimesFF: 	9 CH(i: 7)
chimesFF: 	10 CN(i: 8)
chimesFF: 	11 CO(i: 9)
chimesFF: 	6 HAl(i: 10)
chimesFF: 	9 HC(i: 11)
chimesFF: 	2 HH(i: 12)
chimesFF: 	12 HN(i: 13)
chimesFF: 	13 HO(i: 14)
chimesFF: 	7 NAl(i: 15)
chimesFF: 	10 NC(i: 16)
chimesFF: 	12 NH(i: 17)
chimesFF: 	3 NN(i: 18)
chimesFF: 	14 NO(i: 19)
chimesFF: 	8 OAl(i: 20)
chimesFF: 	11 OC(i: 21)
chimesFF: 	13 OH(i: 22)
chimesFF: 	14 ON(i: 23)
chimesFF: 	4 OO(i: 24)
chimesFF: Built the following 2-body pair "fast" map:
chimesFF: 	AlAl: 0 0
chimesFF: 	AlC: 1 5
chimesFF: 	AlH: 2 6
chimesFF: 	AlN: 3 7
chimesFF: 	AlO: 4 8
chimesFF: 	CAl: 5 5
chimesFF: 	CC: 6 1
chimesFF: 	CH: 7 9
chimesFF: 	CN: 8 10
chimesFF: 	CO: 9 11
chimesFF: 	HAl: 10 6
chimesFF: 	HC: 11 9
chimesFF: 	HH: 12 2
chimesFF: 	HN: 13 12
chimesFF: 	HO: 14 13
chimesFF: 	NAl: 15 7
chimesFF: 	NC: 16 10
chimesFF: 	NH: 17 12
chimesFF: 	NN: 18 3
chimesFF: 	NO: 19 14
chimesFF: 	OAl: 20 8
chimesFF: 	OC: 21 11
chimesFF: 	OH: 22 13
chimesFF: 	ON: 23 14
chimesFF: 	OO: 24 4
chimesFF: Read 3B parameters for triplet: 0 Al Al Al
chimesFF: Read 3B parameters for triplet: 1 Al Al C
chimesFF: Read 3B parameters for triplet: 2 Al Al H
chimesFF: 	0 4 7 -1.92694
chimesFF: 	0 7 4 -1.92694
chimesFF: 	5 3 6 0.78926
chimesFF: 	5 6 3 0.78926
chimesFF: 	7 0 4 -0.04510
chimesFF: 	7 4 0 -0.04510
chimesFF: 	7 3 4 0.15260
chimesFF: 	7 4 3 0.15260
chimesFF: 	7 3 6 -0.41131
chimesFF: 	7 6 3 -0.41131
chimesFF: Read 3B parameters for triplet: 3 Al Al N
chimesFF: Read 3B parameters for triplet: 4 Al Al O
chimesFF: 	0 3 4 -4.48919
chimesFF: 	0 4 3 -4.48919
chimesFF: 	0 3 7 1.12258
chimesFF: 	0 7 3 1.12258
chimesFF: 	0 4 5 1.22906
chimesFF: 	0 5 4 1.22906
chimesFF: 	2 3 4 0.04504
chimesFF: 	2 4 3 0.04504
chimesFF: 	2 5 7 1.51396
chimesFF: 	2 7 5 1.51396
chimesFF: 	4 5 7 -0.79415
chimesFF: 	4 7 5 -0.79415
chimesFF: 	6 0 6 -0.43793
chimesFF: 	6 6 0 -0.43793
chimesFF: 	6 3 7 -0.50801
chimesFF: 	6 7 3 -0.50801
chimesFF: 	7 4 7 0.19867
chimesFF: 	7 7 4 0.19867
chimesFF: Read 3B parameters for triplet: 5 Al C C
chimesFF: 	0 6 7 -1.28548
chimesFF: 	6 0 7 -1.28548
chimesFF: Read 3B parameters for triplet: 6 Al C H
chimesFF: 	3 0 3 -1.82798
chimesFF: 	3 2 0 9.60983
chimesFF: 	6 0 3 1.72628
chimesFF: 	6 0 4 -0.60475
chimesFF: 	6 4 7 -0.63814
chimesFF: 	6 7 0 1.37502
chimesFF: Read 3B parameters for triplet: 7 Al C N
chimesFF: Read 3B parameters for triplet: 8 Al C O
chimesFF: 	0 1 6 2.35960
chimesFF: 	0 3 5 1.91511
chimesFF: 	0 3 6 -0.66477
chimesFF: 	0 3 7 -2.63363
chimesFF: 	0 5 3 1.86514
chimesFF: 	0 6 4 -1.93231
chimesFF: 	0 7 4 -1.25729
chimesFF: 	1 0 4 -5.80619
chimesFF: 	3 0 4 1.98588
chimesFF: 	3 0 7 -1.82184
chimesFF: 	3 5 6 2.72352
chimesFF: 	3 6 6 0.59329
chimesFF: 	3 7 5 0.24053
chimesFF: 	3 7 7 -0.44323
chimesFF: 	4 0 7 0.04693
chimesFF: 	4 6 6 1.93229
chimesFF: 	4 6 7 2.92216
chimesFF: 	4 7 0 0.77107
chimesFF: 	5 0 6 1.59721
chimesFF: 	5 6 3 0.79240
chimesFF: 	5 7 4 -0.99613
chimesFF: 	6 0 4 2.12321
chimesFF: 	6 0 7 -0.07796
chimesFF: 	6 3 6 -0.79362
chimesFF: 	6 3 7 -0.35958
chimesFF: 	6 5 0 0.06238
chimesFF: 	6 6 0 -2.72874
chimesFF: 	6 6 1 -0.56129
chimesFF: 	6 6 3 0.23060
chimesFF: 	6 7 4 -0.91332
chimesFF: 	6 7 5 -1.01566
chimesFF: 	6 7 7 0.48476
chimesFF: 	7 0 4 0.49703
chimesFF: 	7 3 4 -0.50012
chimesFF: 	7 4 0 0.55109
chimesFF: 	7 4 7 -1.62852
chimesFF: 	7 5 0 0.29011
chimesFF: 	7 5 3 -1.53537
chimesFF: 	7 6 5 1.05094
chimesFF: 	7 7 1 -0.42177
chimesFF: 	7 7 3 0.49814
chimesFF: 	7 7 6 -0.07833
chimesFF: Read 3B parameters for triplet: 9 Al H H
chimesFF: 	0 7 1 -0.78357
chimesFF: 	7 0 1 -0.78357
chimesFF: 	2 3 0 0.80943
chimesFF: 	3 2 0 0.80943
chimesFF: 	2 6 0 -0.34758
chimesFF: 	6 2 0 -0.34758
chimesFF: 	3 7 0 0.39341
chimesFF: 	7 3 0 0.39341
chimesFF: 	4 6 4 -0.95795
chimesFF: 	6 4 4 -0.95795
chimesFF: 	5 7 0 -0.34897
chimesFF: 	7 5 0 -0.34897
chimesFF: 	6 7 1 -0.61140
chimesFF: 	7 6 1 -0.61140
chimesFF: Read 3B parameters for triplet: 10 Al H N
chimesFF: Read 3B parameters for triplet: 11 Al H O
chimesFF: 	0 2 4 0.47698
chimesFF: 	0 3 4 1.32157
chimesFF: 	0 3 7 0.07544
chimesFF: 	0 4 5 -1.13204
chimesFF: 	0 5 2 1.83900
chimesFF: 	0 6 4 0.20026
chimesFF: 	0 6 6 -0.32157
chimesFF: 	0 7 3 0.10886
chimesFF: 	0 7 6 0.31753
chimesFF: 	0 7 7 0.02843
chimesFF: 	2 0 7 0.11316
chimesFF: 	2 3 0 -0.89018
chimesFF: 	2 6 7 -0.35843
chimesFF: 	3 0 3 -0.66027
chimesFF: 	3 0 7 0.76773
chimesFF: 	3 5 5 0.78131
chimesFF: 	3 5 7 1.56706
chimesFF: 	3 6 2 -3.58793
chimesFF: 	3 6 3 -0.31869
chimesFF: 	3 7 3 -0.54564
chimesFF: 	3 7 7 -0.06035
chimesFF: 	4 0 6 0.51836
chimesFF: 	4 6 7 0.36889
chimesFF: 	4 7 3 -0.66412
chimesFF: 	5 0 3 0.04991
chimesFF: 	5 0 5 -0.65684
chimesFF: 	5 3 0 0.24729
chimesFF: 	5 3 4 0.55687
chimesFF: 	5 4 4 0.90141
chimesFF: 	5 5 5 -0.84171
chimesFF: 	6 0 3 0.01133
chimesFF: 	6 0 6 -0.29747
chimesFF: 	6 3 3 -0.46814
chimesFF: 	6 3 5 0.95941
chimesFF: 	6 4 0 0.20737
chimesFF: 	6 5 6 -0.55453
chimesFF: 	6 5 7 -0.45236
chimesFF: 	6 6 0 -0.13342
chimesFF: 	6 7 1 -0.07523
chimesFF: 	6 7 3 0.23864
chimesFF: 	6 7 7 0.23424
chimesFF: 	7 0 6 -0.12025
chimesFF: 	7 3 4 -0.07182
chimesFF: 	7 3 6 0.29878
chimesFF: 	7 4 0 0.69466
chimesFF: 	7 4 4 -0.36763
chimesFF: 	7 5 3 -1.14889
chimesFF: 	7 5 6 -0.35257
chimesFF: 	7 6 7 -0.64173
chimesFF: 	7 7 3 0.30886
chimesFF: 	7 7 4 0.03914
chimesFF: 	7 7 6 0.16483
chimesFF: 	7 7 7 0.36009
chimesFF: Read 3B parameters for triplet: 12 Al N N
chimesFF: Read 3B parameters for triplet: 13 Al N O
chimesFF: Read 3B parameters for triplet: 14 Al O O
chimesFF: 	0 1 3 -2.46398
chimesFF: 	1 0 3 -2.46398
chimesFF: 	0 2 6 0.82282
chimesFF: 	2 0 6 0.82282
chimesFF: 	0 3 4 -2.68125
chimesFF: 	3 0 4 -2.68125
chimesFF: 	0 4 3 3.49758
chimesFF: 	4 0 3 3.49758
chimesFF: 	0 4 6 1.18922
chimesFF: 	4 0 6 1.18922
chimesFF: 	0 4 7 -0.37656
chimesFF: 	4 0 7 -0.37656
chimesFF: 	0 5 3 0.04466
chimesFF: 	5 0 3 0.04466
chimesFF: 	0 7 2 0.20063
chimesFF: 	7 0 2 0.20063
chimesFF: 	0 7 4 -0.60989
chimesFF: 	7 0 4 -0.60989
chimesFF: 	0 7 6 0.73021
chimesFF: 	7 0 6 0.73021
chimesFF: 	1 3 5 0.56939
chimesFF: 	3 1 5 0.56939
chimesFF: 	1 5 0 -2.79067
chimesFF: 	5 1 0 -2.79067
chimesFF: 	2 3 0 -3.24812
chimesFF: 	3 2 0 -3.24812
chimesFF: 	3 4 2 -1.62080
chimesFF: 	4 3 2 -1.62080
chimesFF: 	3 5 6 -0.33244
chimesFF: 	5 3 6 -0.33244
chimesFF: 	3 5 7 -0.20708
chimesFF: 	5 3 7 -0.20708
chimesFF: 	3 6 7 0.43552
chimesFF: 	6 3 7 0.43552
chimesFF: 	3 7 4 -0.37039
chimesFF: 	7 3 4 -0.37039
chimesFF: 	4 5 2 1.76197
chimesFF: 	5 4 2 1.76197
chimesFF: 	4 5 4 -0.32448
chimesFF: 	5 4 4 -0.32448
chimesFF: 	4 7 3 0.06593
chimesFF: 	7 4 3 0.06593
chimesFF: 	5 5 6 0.45267
chimesFF: 	5 6 2 -0.22958
chimesFF: 	6 5 2 -0.22958
chimesFF: 	5 7 7 -0.08973
chimesFF: 	7 5 7 -0.08973
chimesFF: 	6 7 4 -0.25742
chimesFF: 	7 6 4 -0.25742
chimesFF: Read 3B parameters for triplet: 15 C C C
chimesFF: 	0 2 2 0.15590
chimesFF: 	2 0 2 0.15590
chimesFF: 	2 2 0 0.15590
chimesFF: 	0 2 4 -7.75021
chimesFF: 	2 0 4 -7.75021
chimesFF: 	0 4 2 -7.75021
chimesFF: 	4 0 2 -7.75021
chimesFF: 	2 4 0 -7.75021
chimesFF: 	4 2 0 -7.75021
chimesFF: 	0 2 7 1.77607
chimesFF: 	2 0 7 1.77607
chimesFF: 	0 7 2 1.77607
chimesFF: 	7 0 2 1.77607
chimesFF: 	2 7 0 1.77607
chimesFF: 	7 2 0 1.77607
chimesFF: 	0 3 3 0.96497
chimesFF: 	3 0 3 0.96497
chimesFF: 	3 3 0 0.96497
chimesFF: 	0 3 5 -0.57287
chimesFF: 	3 0 5 -0.57287
chimesFF: 	0 5 3 -0.57287
chimesFF: 	5 0 3 -0.57287
chimesFF: 	3 5 0 -0.57287
chimesFF: 	5 3 0 -0.57287
chimesFF: 	0 5 6 0.20665
chimesFF: 	5 0 6 0.20665
chimesFF: 	0 6 5 0.20665
chimesFF: 	6 0 5 0.20665
chimesFF: 	5 6 0 0.20665
chimesFF: 	6 5 0 0.20665
chimesFF: 	0 7 7 -0.61537
chimesFF: 	7 0 7 -0.61537
chimesFF: 	7 7 0 -0.61537
chimesFF: 	1 3 5 -4.45303
chimesFF: 	3 1 5 -4.45303
chimesFF: 	1 5 3 -4.45303
chimesFF: 	5 1 3 -4.45303
chimesFF: 	3 5 1 -4.45303
chimesFF: 	5 3 1 -4.45303
chimesFF: 	1 7 7 -0.25020
chimesFF: 	7 1 7 -0.25020
chimesFF: 	7 7 1 -0.25020
chimesFF: 	2 3 4 -3.49013
chimesFF: 	3 2 4 -3.49013
chimesFF: 	2 4 3 -3.49013
chimesFF: 	4 2 3 -3.49013
chimesFF: 	3 4 2 -3.49013
chimesFF: 	4 3 2 -3.49013
chimesFF: 	2 3 5 4.16681
chimesFF: 	3 2 5 4.16681
chimesFF: 	2 5 3 4.16681
chimesFF: 	5 2 3 4.16681
chimesFF: 	3 5 2 4.16681
chimesFF: 	5 3 2 4.16681
chimesFF: 	2 4 6 -0.14605
chimesFF: 	4 2 6 -0.14605
chimesFF: 	2 6 4 -0.14605
chimesFF: 	6 2 4 -0.14605
chimesFF: 	4 6 2 -0.14605
chimesFF: 	6 4 2 -0.14605
chimesFF: 	2 5 7 -1.21670
chimesFF: 	5 2 7 -1.21670
chimesFF: 	2 7 5 -1.21670
chimesFF: 	7 2 5 -1.21670
chimesFF: 	5 7 2 -1.21670
chimesFF: 	7 5 2 -1.21670
chimesFF: 	3 3 5 2.75312
chimesFF: 	3 5 3 2.75312
chimesFF: 	5 3 3 2.75312
chimesFF: 	3 4 6 0.20413
chimesFF: 	4 3 6 0.20413
chimesFF: 	3 6 4 0.20413
chimesFF: 	6 3 4 0.20413
chimesFF: 	4 6 3 0.20413
chimesFF: 	6 4 3 0.20413
chimesFF: 	3 7 7 2.71621
chimesFF: 	7 3 7 2.71621
chimesFF: 	7 7 3 2.71621
chimesFF: 	4 4 7 2.18564
chimesFF: 	4 7 4 2.18564
chimesFF: 	7 4 4 2.18564
chimesFF: 	4 5 6 -1.46270
chimesFF: 	5 4 6 -1.46270
chimesFF: 	4 6 5 -1.46270
chimesFF: 	6 4 5 -1.46270
chimesFF: 	5 6 4 -1.46270
chimesFF: 	6 5 4 -1.46270
chimesFF: 	4 5 7 0.42655
chimesFF: 	5 4 7 0.42655
chimesFF: 	4 7 5 0.42655
chimesFF: 	7 4 5 0.42655
chimesFF: 	5 7 4 0.42655
chimesFF: 	7 5 4 0.42655
chimesFF: 	4 6 7 -0.30756
chimesFF: 	6 4 7 -0.30756
chimesFF: 	4 7 6 -0.30756
chimesFF: 	7 4 6 -0.30756
chimesFF: 	6 7 4 -0.30756
chimesFF: 	7 6 4 -0.30756
chimesFF: 	5 5 6 -1.46739
chimesFF: 	5 6 5 -1.46739
chimesFF: 	6 5 5 -1.46739
chimesFF: 	5 6 7 0.59656
chimesFF: 	6 5 7 0.59656
chimesFF: 	5 7 6 0.59656
chimesFF: 	7 5 6 0.59656
chimesFF: 	6 7 5 0.59656
chimesFF: 	7 6 5 0.59656
chimesFF: 	7 7 7 1.68348
chimesFF: Read 3B parameters for triplet: 16 C C H
chimesFF: 	0 2 4 -1.28121
chimesFF: 	0 4 2 -1.28121
chimesFF: 	0 2 5 0.77649
chimesFF: 	0 5 2 0.77649
chimesFF: 	0 3 4 -0.46258
chimesFF: 	0 4 3 -0.46258
chimesFF: 	0 3 7 -2.20335
chimesFF: 	0 7 3 -2.20335
chimesFF: 	0 4 4 1.81835
chimesFF: 	0 4 6 0.63432
chimesFF: 	0 6 4 0.63432
chimesFF: 	0 5 7 0.01418
chimesFF: 	0 7 5 0.01418
chimesFF: 	0 6 6 -1.69365
chimesFF: 	2 0 5 2.01581
chimesFF: 	2 5 0 2.01581
chimesFF: 	2 0 6 1.49406
chimesFF: 	2 6 0 1.49406
chimesFF: 	2 0 7 -0.65559
chimesFF: 	2 7 0 -0.65559
chimesFF: 	2 4 6 -0.48868
chimesFF: 	2 6 4 -0.48868
chimesFF: 	3 0 4 -3.89500
chimesFF: 	3 4 0 -3.89500
chimesFF: 	3 0 5 0.02159
chimesFF: 	3 5 0 0.02159
chimesFF: 	3 2 7 2.73431
chimesFF: 	3 7 2 2.73431
chimesFF: 	3 3 4 0.46505
chimesFF: 	3 4 3 0.46505
chimesFF: 	3 3 7 2.28225
chimesFF: 	3 7 3 2.28225
chimesFF: 	3 5 7 -3.12679
chimesFF: 	3 7 5 -3.12679
chimesFF: 	3 6 6 1.61035
chimesFF: 	4 1 6 0.04048
chimesFF: 	4 6 1 0.04048
chimesFF: 	4 5 6 -0.40253
chimesFF: 	4 6 5 -0.40253
chimesFF: 	4 6 6 0.57352
chimesFF: 	4 6 7 0.32694
chimesFF: 	4 7 6 0.32694
chimesFF: 	5 1 5 -1.33215
chimesFF: 	5 5 1 -1.33215
chimesFF: 	5 3 4 -1.55631
chimesFF: 	5 4 3 -1.55631
chimesFF: 	5 3 5 1.95496
chimesFF: 	5 5 3 1.95496
chimesFF: 	6 0 1 0.38000
chimesFF: 	6 1 0 0.38000
chimesFF: 	6 0 3 -0.22892
chimesFF: 	6 3 0 -0.22892
chimesFF: 	6 0 4 0.73496
chimesFF: 	6 4 0 0.73496
chimesFF: 	6 0 7 0.19705
chimesFF: 	6 7 0 0.19705
chimesFF: 	6 2 4 -1.21243
chimesFF: 	6 4 2 -1.21243
chimesFF: 	6 5 7 0.21821
chimesFF: 	6 7 5 0.21821
chimesFF: 	6 6 6 -0.02047
chimesFF: 	7 0 2 -0.06482
chimesFF: 	7 2 0 -0.06482
chimesFF: 	7 0 4 -0.98454
chimesFF: 	7 4 0 -0.98454
chimesFF: 	7 0 5 1.67770
chimesFF: 	7 5 0 1.67770
chimesFF: 	7 1 3 0.41517
chimesFF: 	7 3 1 0.41517
chimesFF: 	7 1 5 1.50465
chimesFF: 	7 5 1 1.50465
chimesFF: 	7 1 6 -0.02460
chimesFF: 	7 6 1 -0.02460
chimesFF: 	7 2 6 0.12944
chimesFF: 	7 6 2 0.12944
chimesFF: 	7 3 5 -1.95027
chimesFF: 	7 5 3 -1.95027
chimesFF: 	7 3 7 0.59871
chimesFF: 	7 7 3 0.59871
chimesFF: 	7 4 5 -0.53547
chimesFF: 	7 5 4 -0.53547
chimesFF: 	7 5 7 -1.09900
chimesFF: 	7 7 5 -1.09900
chimesFF: Read 3B parameters for triplet: 17 C C N
chimesFF: 	0 3 5 -5.06001
chimesFF: 	0 5 3 -5.06001
chimesFF: 	0 4 6 0.61449
chimesFF: 	0 6 4 0.61449
chimesFF: 	0 5 7 0.79972
chimesFF: 	0 7 5 0.79972
chimesFF: 	0 6 7 0.09852
chimesFF: 	0 7 6 0.09852
chimesFF: 	2 0 4 -9.97961
chimesFF: 	2 4 0 -9.97961
chimesFF: 	2 0 6 2.00337
chimesFF: 	2 6 0 2.00337
chimesFF: 	2 4 5 3.17806
chimesFF: 	2 5 4 3.17806
chimesFF: 	2 4 6 -1.25576
chimesFF: 	2 6 4 -1.25576
chimesFF: 	3 0 2 -2.34360
chimesFF: 	3 2 0 -2.34360
chimesFF: 	3 0 3 1.56749
chimesFF: 	3 3 0 1.56749
chimesFF: 	3 0 5 -1.69571
chimesFF: 	3 5 0 -1.69571
chimesFF: 	3 5 7 -0.79103
chimesFF: 	3 7 5 -0.79103
chimesFF: 	3 6 6 0.08167
chimesFF: 	3 6 7 -1.43683
chimesFF: 	3 7 6 -1.43683
chimesFF: 	3 7 7 2.41413
chimesFF: 	4 0 7 0.15839
chimesFF: 	4 7 0 0.15839
chimesFF: 	4 6 7 0.52853
chimesFF: 	4 7 6 0.52853
chimesFF: 	5 0 3 -1.04176
chimesFF: 	5 3 0 -1.04176
chimesFF: 	5 3 6 1.47856
chimesFF: 	5 6 3 1.47856
chimesFF: 	5 3 7 1.02134
chimesFF: 	5 7 3 1.02134
chimesFF: 	5 4 7 0.39673
chimesFF: 	5 7 4 0.39673
chimesFF: 	5 6 7 1.28076
chimesFF: 	5 7 6 1.28076
chimesFF: 	6 0 2 0.59634
chimesFF: 	6 2 0 0.59634
chimesFF: 	6 0 3 -0.59687
chimesFF: 	6 3 0 -0.59687
chimesFF: 	6 0 5 1.02751
chimesFF: 	6 5 0 1.02751
chimesFF: 	6 0 6 -0.46031
chimesFF: 	6 6 0 -0.46031
chimesFF: 	6 6 6 -1.94794
chimesFF: 	7 0 2 0.20517
chimesFF: 	7 2 0 0.20517
chimesFF: 	7 0 4 -0.43289
chimesFF: 	7 4 0 -0.43289
chimesFF: 	7 0 7 -0.87562
chimesFF: 	7 7 0 -0.87562
chimesFF: 	7 1 7 -0.48749
chimesFF: 	7 7 1 -0.48749
chimesFF: 	7 3 5 -0.39058
chimesFF: 	7 5 3 -0.39058
chimesFF: 	7 3 6 -2.08490
chimesFF: 	7 6 3 -2.08490
chimesFF: 	7 3 7 3.23958
chimesFF: 	7 7 3 3.23958
chimesFF: 	7 4 5 0.93438
chimesFF: 	7 5 4 0.93438
chimesFF: 	7 4 6 -1.08968
chimesFF: 	7 6 4 -1.08968
chimesFF: Read 3B parameters for triplet: 18 C C O
chimesFF: 	0 2 3 14.16043
chimesFF: 	0 3 2 14.16043
chimesFF: 	0 3 5 -0.29802
chimesFF: 	0 5 3 -0.29802
chimesFF: 	0 3 7 -0.58383
chimesFF: 	0 7 3 -0.58383
chimesFF: 	0 4 5 -0.43315
chimesFF: 	0 5 4 -0.43315
chimesFF: 	0 6 6 -3.30413
chimesFF: 	0 6 7 -2.53504
chimesFF: 	0 7 6 -2.53504
chimesFF: 	2 0 2 9.52954
chimesFF: 	2 2 0 9.52954
chimesFF: 	2 0 7 -3.48444
chimesFF: 	2 7 0 -3.48444
chimesFF: 	2 3 7 0.84466
chimesFF: 	2 7 3 0.84466
chimesFF: 	3 0 4 -10.21841
chimesFF: 	3 4 0 -10.21841
chimesFF: 	3 0 7 -1.41030
chimesFF: 	3 7 0 -1.41030
chimesFF: 	3 1 4 -6.65119
chimesFF: 	3 4 1 -6.65119
chimesFF: 	3 2 3 -6.82244
chimesFF: 	3 3 2 -6.82244
chimesFF: 	3 2 4 1.97217
chimesFF: 	3 4 2 1.97217
chimesFF: 	3 2 6 -4.88189
chimesFF: 	3 6 2 -4.88189
chimesFF: 	3 3 6 -6.70382
chimesFF: 	3 6 3 -6.70382
chimesFF: 	3 6 6 2.24339
chimesFF: 	3 6 7 0.45485
chimesFF: 	3 7 6 0.45485
chimesFF: 	3 7 7 -1.13361
chimesFF: 	4 0 5 -1.59910
chimesFF: 	4 5 0 -1.59910
chimesFF: 	4 1 3 -5.83651
chimesFF: 	4 3 1 -5.83651
chimesFF: 	4 1 6 1.73086
chimesFF: 	4 6 1 1.73086
chimesFF: 	4 2 4 2.99055
chimesFF: 	4 4 2 2.99055
chimesFF: 	4 3 4 1.39479
chimesFF: 	4 4 3 1.39479
chimesFF: 	4 3 5 1.11868
chimesFF: 	4 5 3 1.11868
chimesFF: 	4 3 6 -1.90295
chimesFF: 	4 6 3 -1.90295
chimesFF: 	4 5 5 -1.17156
chimesFF: 	4 5 7 0.66741
chimesFF: 	4 7 5 0.66741
chimesFF: 	4 6 6 0.74570
chimesFF: 	4 7 7 1.82545
chimesFF: 	5 1 4 2.48374
chimesFF: 	5 4 1 2.48374
chimesFF: 	5 4 7 -0.09024
chimesFF: 	5 7 4 -0.09024
chimesFF: 	5 5 6 0.71970
chimesFF: 	5 6 5 0.71970
chimesFF: 	5 5 7 0.59552
chimesFF: 	5 7 5 0.59552
chimesFF: 	5 6 7 -0.37700
chimesFF: 	5 7 6 -0.37700
chimesFF: 	6 0 4 2.27573
chimesFF: 	6 4 0 2.27573
chimesFF: 	6 0 5 2.38137
chimesFF: 	6 5 0 2.38137
chimesFF: 	6 0 7 -0.45412
chimesFF: 	6 7 0 -0.45412
chimesFF: 	6 1 7 0.40730
chimesFF: 	6 7 1 0.40730
chimesFF: 	6 2 5 -1.00425
chimesFF: 	6 5 2 -1.00425
chimesFF: 	6 3 4 -2.55396
chimesFF: 	6 4 3 -2.55396
chimesFF: 	6 4 5 0.51411
chimesFF: 	6 5 4 0.51411
chimesFF: 	6 4 6 1.56836
chimesFF: 	6 6 4 1.56836
chimesFF: 	6 5 5 1.86348
chimesFF: 	6 5 6 0.65540
chimesFF: 	6 6 5 0.65540
chimesFF: 	6 5 7 -0.33346
chimesFF: 	6 7 5 -0.33346
chimesFF: 	6 7 7 -0.66030
chimesFF: 	7 0 2 2.02420
chimesFF: 	7 2 0 2.02420
chimesFF: 	7 0 4 -1.68735
chimesFF: 	7 4 0 -1.68735
chimesFF: 	7 0 6 -1.36884
chimesFF: 	7 6 0 -1.36884
chimesFF: 	7 0 7 -0.67834
chimesFF: 	7 7 0 -0.67834
chimesFF: 	7 1 3 0.07576
chimesFF: 	7 3 1 0.07576
chimesFF: 	7 2 3 -7.36638
chimesFF: 	7 3 2 -7.36638
chimesFF: 	7 2 4 2.30573
chimesFF: 	7 4 2 2.30573
chimesFF: 	7 2 6 1.56769
chimesFF: 	7 6 2 1.56769
chimesFF: 	7 3 6 1.76842
chimesFF: 	7 6 3 1.76842
chimesFF: 	7 4 6 -0.43220
chimesFF: 	7 6 4 -0.43220
chimesFF: 	7 5 6 -0.13323
chimesFF: 	7 6 5 -0.13323
chimesFF: 	7 5 7 -0.28426
chimesFF: 	7 7 5 -0.28426
chimesFF: 	7 7 7 0.07174
chimesFF: Read 3B parameters for triplet: 19 C H H
chimesFF: 	0 1 1 2.55661
chimesFF: 	1 0 1 2.55661
chimesFF: 	0 1 7 -0.04451
chimesFF: 	1 0 7 -0.04451
chimesFF: 	0 2 5 1.76921
chimesFF: 	2 0 5 1.76921
chimesFF: 	0 3 5 2.43774
chimesFF: 	3 0 5 2.43774
chimesFF: 	0 4 1 -0.30435
chimesFF: 	4 0 1 -0.30435
chimesFF: 	0 4 5 1.21620
chimesFF: 	4 0 5 1.21620
chimesFF: 	0 4 7 -0.46087
chimesFF: 	4 0 7 -0.46087
chimesFF: 	0 5 5 -0.28355
chimesFF: 	5 0 5 -0.28355
chimesFF: 	0 6 4 0.70790
chimesFF: 	6 0 4 0.70790
chimesFF: 	0 7 1 0.25344
chimesFF: 	7 0 1 0.25344
chimesFF: 	0 7 4 0.45590
chimesFF: 	7 0 4 0.45590
chimesFF: 	1 3 6 -2.31786
chimesFF: 	3 1 6 -2.31786
chimesFF: 	1 4 2 -0.15130
chimesFF: 	4 1 2 -0.15130
chimesFF: 	1 6 0 -0.29051
chimesFF: 	6 1 0 -0.29051
chimesFF: 	1 6 5 -0.31838
chimesFF: 	6 1 5 -0.31838
chimesFF: 	2 3 6 0.99098
chimesFF: 	3 2 6 0.99098
chimesFF: 	2 4 3 -0.07965
chimesFF: 	4 2 3 -0.07965
chimesFF: 	2 7 4 -1.05604
chimesFF: 	7 2 4 -1.05604
chimesFF: 	3 4 0 0.65295
chimesFF: 	4 3 0 0.65295
chimesFF: 	3 4 6 -0.11744
chimesFF: 	4 3 6 -0.11744
chimesFF: 	3 4 7 0.21431
chimesFF: 	4 3 7 0.21431
chimesFF: 	3 5 3 -0.68460
chimesFF: 	5 3 3 -0.68460
chimesFF: 	3 5 6 -0.38221
chimesFF: 	5 3 6 -0.38221
chimesFF: 	3 6 5 0.49623
chimesFF: 	6 3 5 0.49623
chimesFF: 	3 7 0 0.48682
chimesFF: 	7 3 0 0.48682
chimesFF: 	3 7 4 -1.87798
chimesFF: 	7 3 4 -1.87798
chimesFF: 	3 7 7 -0.54863
chimesFF: 	7 3 7 -0.54863
chimesFF: 	4 6 0 0.20858
chimesFF: 	6 4 0 0.20858
chimesFF: 	5 7 7 0.01124
chimesFF: 	7 5 7 0.01124
chimesFF: 	6 7 3 -0.36859
chimesFF: 	7 6 3 -0.36859
chimesFF: 	6 7 7 0.08211
chimesFF: 	7 6 7 0.08211
chimesFF: 	7 7 7 -0.53543
chimesFF: Read 3B parameters for triplet: 20 C H N
chimesFF: 	0 2 2 -2.99809
chimesFF: 	0 2 3 -2.92831
chimesFF: 	0 2 4 1.18764
chimesFF: 	0 4 1 -0.79095
chimesFF: 	0 5 1 -0.34688
chimesFF: 	0 5 3 1.86501
chimesFF: 	0 6 1 2.12092
chimesFF: 	0 6 3 -4.80946
chimesFF: 	0 6 5 0.47711
chimesFF: 	0 6 6 -0.10524
chimesFF: 	0 7 7 0.25497
chimesFF: 	1 0 2 -4.58791
chimesFF: 	1 6 5 -1.27219
chimesFF: 	1 7 0 -1.32907
chimesFF: 	1 7 6 -0.27237
chimesFF: 	3 0 6 -0.63196
chimesFF: 	3 5 0 0.93976
chimesFF: 	3 7 2 -0.24507
chimesFF: 	4 0 5 0.00819
chimesFF: 	4 2 5 -1.35531
chimesFF: 	4 5 3 -0.27386
chimesFF: 	4 6 4 0.87646
chimesFF: 	4 6 7 -0.98576
chimesFF: 	4 7 0 -0.90410
chimesFF: 	4 7 6 -0.22839
chimesFF: 	4 7 7 -0.98080
chimesFF: 	5 2 0 0.70324
chimesFF: 	5 3 3 6.45889
chimesFF: 	5 3 5 -1.59145
chimesFF: 	5 3 6 -0.25990
chimesFF: 	5 4 0 -1.17748
chimesFF: 	5 4 2 2.52501
chimesFF: 	5 4 3 1.99138
chimesFF: 	5 6 1 2.50206
chimesFF: 	5 6 4 -1.12208
chimesFF: 	5 6 7 0.39630
chimesFF: 	5 7 1 1.16857
chimesFF: 	5 7 6 0.61950
chimesFF: 	6 0 5 -0.65318
chimesFF: 	6 1 5 -0.67485
chimesFF: 	6 3 3 -1.81232
chimesFF: 	6 3 5 1.14753
chimesFF: 	6 4 7 -0.40839
chimesFF: 	6 5 7 -0.23298
chimesFF: 	6 6 0 -5.91470
chimesFF: 	6 6 1 -2.57749
chimesFF: 	6 6 6 -1.07719
chimesFF: 	6 7 0 0.29282
chimesFF: 	7 0 3 0.23640
chimesFF: 	7 0 6 -0.74056
chimesFF: 	7 3 4 -3.61148
chimesFF: 	7 4 6 0.61235
chimesFF: 	7 4 7 0.86137
chimesFF: 	7 5 2 -0.57085
chimesFF: 	7 6 3 -1.86789
chimesFF: 	7 6 5 1.14533
chimesFF: 	7 7 5 -0.34639
chimesFF: Read 3B parameters for triplet: 21 C H O
chimesFF: 	0 2 1 1.77963
chimesFF: 	0 2 5 1.04333
chimesFF: 	0 2 7 -3.85899
chimesFF: 	0 3 2 3.38425
chimesFF: 	0 3 6 -0.21697
chimesFF: 	0 4 2 2.15437
chimesFF: 	0 5 3 -0.09533
chimesFF: 	0 5 7 0.68458
chimesFF: 	0 6 2 -2.06816
chimesFF: 	0 6 5 1.26821
chimesFF: 	0 6 7 0.08435
chimesFF: 	0 7 5 1.24983
chimesFF: 	0 7 7 0.56862
chimesFF: 	1 3 7 -0.06086
chimesFF: 	1 6 0 -0.34332
chimesFF: 	1 6 2 0.71763
chimesFF: 	1 7 3 -0.72471
chimesFF: 	2 0 5 0.61008
chimesFF: 	2 0 6 -2.82752
chimesFF: 	2 2 7 1.69414
chimesFF: 	2 3 2 -1.10779
chimesFF: 	2 3 4 3.08759
chimesFF: 	2 5 0 0.08539
chimesFF: 	2 6 3 0.73393
chimesFF: 	2 7 3 2.59495
chimesFF: 	3 0 1 -0.25751
chimesFF: 	3 0 5 1.37372
chimesFF: 	3 0 7 -0.76647
chimesFF: 	3 2 5 -0.79151
chimesFF: 	3 2 7 6.00450
chimesFF: 	3 3 0 -0.88942
chimesFF: 	3 3 6 -0.10210
chimesFF: 	3 3 7 1.33988
chimesFF: 	3 4 0 -0.67129
chimesFF: 	3 4 2 4.83195
chimesFF: 	3 5 4 -1.31279
chimesFF: 	3 5 5 0.00433
chimesFF: 	3 6 4 1.66603
chimesFF: 	3 6 6 1.25020
chimesFF: 	3 7 0 0.13477
chimesFF: 	3 7 2 -2.53771
chimesFF: 	3 7 5 -0.45817
chimesFF: 	3 7 6 0.23364
chimesFF: 	3 7 7 0.22970
chimesFF: 	4 2 5 1.32247
chimesFF: 	4 3 1 -0.09393
chimesFF: 	4 3 5 1.52107
chimesFF: 	4 3 6 -0.72237
chimesFF: 	4 4 5 -0.21933
chimesFF: 	4 4 7 -0.73243
chimesFF: 	4 6 0 -0.67377
chimesFF: 	4 7 3 -0.02426
chimesFF: 	4 7 5 0.58098
chimesFF: 	5 2 4 -0.84876
chimesFF: 	5 2 5 1.96921
chimesFF: 	5 3 4 -1.19148
chimesFF: 	5 4 4 0.20074
chimesFF: 	5 4 7 0.23684
chimesFF: 	5 5 4 1.06700
chimesFF: 	5 6 3 0.32537
chimesFF: 	5 6 6 -0.42107
chimesFF: 	5 7 0 -0.07850
chimesFF: 	5 7 2 0.58185
chimesFF: 	6 0 4 1.14421
chimesFF: 	6 0 6 -0.04659
chimesFF: 	6 0 7 0.88041
chimesFF: 	6 2 7 -1.87462
chimesFF: 	6 3 5 -0.34028
chimesFF: 	6 3 6 0.04836
chimesFF: 	6 3 7 -0.75899
chimesFF: 	6 4 0 -0.02625
chimesFF: 	6 5 2 0.90043
chimesFF: 	6 5 5 0.97921
chimesFF: 	6 5 6 -0.45587
chimesFF: 	6 6 0 0.80026
chimesFF: 	6 6 3 -0.25918
chimesFF: 	6 6 5 0.29682
chimesFF: 	6 7 4 -0.63735
chimesFF: 	7 0 3 0.24634
chimesFF: 	7 0 5 0.14533
chimesFF: 	7 0 6 -1.63017
chimesFF: 	7 1 0 -1.21582
chimesFF: 	7 1 6 -2.48270
chimesFF: 	7 2 4 0.88414
chimesFF: 	7 2 6 0.34413
chimesFF: 	7 3 0 0.39089
chimesFF: 	7 3 4 0.22708
chimesFF: 	7 3 7 -0.19956
chimesFF: 	7 4 3 0.55896
chimesFF: 	7 4 6 -0.01180
chimesFF: 	7 5 4 -0.35903
chimesFF: 	7 6 0 -0.09843
chimesFF: 	7 6 6 0.30233
chimesFF: 	7 6 7 -0.72427
chimesFF: 	7 7 6 0.39133
chimesFF: Read 3B parameters for triplet: 22 C N N
chimesFF: 	0 2 3 -1.79864
chimesFF: 	2 0 3 -1.79864
chimesFF: 	0 2 6 3.52031
chimesFF: 	2 0 6 3.52031
chimesFF: 	0 2 7 2.55151
chimesFF: 	2 0 7 2.55151
chimesFF: 	0 5 4 -0.13454
chimesFF: 	5 0 4 -0.13454
chimesFF: 	0 5 6 2.46070
chimesFF: 	5 0 6 2.46070
chimesFF: 	0 7 3 1.25764
chimesFF: 	7 0 3 1.25764
chimesFF: 	1 6 3 -6.07828
chimesFF: 	6 1 3 -6.07828
chimesFF: 	2 4 5 -1.10806
chimesFF: 	4 2 5 -1.10806
chimesFF: 	3 5 0 -3.11366
chimesFF: 	5 3 0 -3.11366
chimesFF: 	3 6 0 -1.70093
chimesFF: 	6 3 0 -1.70093
chimesFF: 	3 6 3 2.33439
chimesFF: 	6 3 3 2.33439
chimesFF: 	3 7 7 0.88683
chimesFF: 	7 3 7 0.88683
chimesFF: 	4 6 0 -2.64023
chimesFF: 	6 4 0 -2.64023
chimesFF: 	5 6 5 -0.03488
chimesFF: 	6 5 5 -0.03488
chimesFF: 	5 6 6 -0.13907
chimesFF: 	6 5 6 -0.13907
chimesFF: 	5 7 0 1.11431
chimesFF: 	7 5 0 1.11431
chimesFF: 	6 6 0 -0.52204
chimesFF: 	6 6 6 -0.03177
chimesFF: 	6 7 0 0.78619
chimesFF: 	7 6 0 0.78619
chimesFF: 	7 7 7 0.09636
chimesFF: Read 3B parameters for triplet: 23 C N O
chimesFF: 	0 2 6 1.17256
chimesFF: 	0 7 5 0.04833
chimesFF: 	2 6 0 -0.61734
chimesFF: 	2 7 0 0.68569
chimesFF: 	2 7 5 -1.08946
chimesFF: 	3 5 7 -2.00945
chimesFF: 	3 6 7 1.16829
chimesFF: 	4 0 3 3.52845
chimesFF: 	4 2 0 -2.04468
chimesFF: 	4 2 5 0.42837
chimesFF: 	4 4 6 2.37777
chimesFF: 	4 6 0 2.03640
chimesFF: 	4 6 7 0.55665
chimesFF: 	5 6 0 1.76094
chimesFF: 	6 3 0 -1.54070
chimesFF: 	6 4 6 -1.55310
chimesFF: 	6 5 0 0.32479
chimesFF: 	6 5 2 -2.84207
chimesFF: 	6 5 5 -0.14528
chimesFF: 	6 7 6 -0.15126
chimesFF: 	6 7 7 0.57176
chimesFF: 	7 3 0 0.24519
chimesFF: 	7 6 5 0.99644
chimesFF: 	7 7 3 0.07300
chimesFF: 	7 7 7 -0.83203
chimesFF: Read 3B parameters for triplet: 24 C O O
chimesFF: 	0 1 4 0.98336
chimesFF: 	1 0 4 0.98336
chimesFF: 	0 2 3 8.10480
chimesFF: 	2 0 3 8.10480
chimesFF: 	0 2 5 -2.21369
chimesFF: 	2 0 5 -2.21369
chimesFF: 	0 2 6 4.53525
chimesFF: 	2 0 6 4.53525
chimesFF: 	0 3 3 10.70097
chimesFF: 	3 0 3 10.70097
chimesFF: 	0 3 5 -7.05220
chimesFF: 	3 0 5 -7.05220
chimesFF: 	0 3 7 1.25728
chimesFF: 	3 0 7 1.25728
chimesFF: 	0 4 5 -6.12200
chimesFF: 	4 0 5 -6.12200
chimesFF: 	0 4 7 0.17433
chimesFF: 	4 0 7 0.17433
chimesFF: 	0 6 6 0.11878
chimesFF: 	6 0 6 0.11878
chimesFF: 	0 6 7 -1.54676
chimesFF: 	6 0 7 -1.54676
chimesFF: 	0 7 3 0.04165
chimesFF: 	7 0 3 0.04165
chimesFF: 	0 7 5 -0.38255
chimesFF: 	7 0 5 -0.38255
chimesFF: 	0 7 6 0.57066
chimesFF: 	7 0 6 0.57066
chimesFF: 	1 2 4 -0.01566
chimesFF: 	2 1 4 -0.01566
chimesFF: 	1 2 6 1.23974
chimesFF: 	2 1 6 1.23974
chimesFF: 	1 3 6 1.46972
chimesFF: 	3 1 6 1.46972
chimesFF: 	1 3 7 0.70266
chimesFF: 	3 1 7 0.70266
chimesFF: 	1 4 3 -9.94733
chimesFF: 	4 1 3 -9.94733
chimesFF: 	1 4 6 -0.19074
chimesFF: 	4 1 6 -0.19074
chimesFF: 	2 4 5 1.65985
chimesFF: 	4 2 5 1.65985
chimesFF: 	2 5 4 0.02637
chimesFF: 	5 2 4 0.02637
chimesFF: 	2 6 0 -0.38146
chimesFF: 	6 2 0 -0.38146
chimesFF: 	3 3 7 -1.31297
chimesFF: 	3 4 6 1.90815
chimesFF: 	4 3 6 1.90815
chimesFF: 	3 4 7 -1.03619
chimesFF: 	4 3 7 -1.03619
chimesFF: 	3 5 4 -1.20105
chimesFF: 	5 3 4 -1.20105
chimesFF: 	3 5 6 3.71352
chimesFF: 	5 3 6 3.71352
chimesFF: 	3 6 0 0.78320
chimesFF: 	6 3 0 0.78320
chimesFF: 	3 6 3 1.27108
chimesFF: 	6 3 3 1.27108
chimesFF: 	3 6 7 3.37058
chimesFF: 	6 3 7 3.37058
chimesFF: 	3 7 0 -0.42457
chimesFF: 	7 3 0 -0.42457
chimesFF: 	3 7 6 -0.39201
chimesFF: 	7 3 6 -0.39201
chimesFF: 	3 7 7 0.51484
chimesFF: 	7 3 7 0.51484
chimesFF: 	4 6 4 0.95701
chimesFF: 	6 4 4 0.95701
chimesFF: 	4 6 6 -2.50935
chimesFF: 	6 4 6 -2.50935
chimesFF: 	4 6 7 0.64949
chimesFF: 	6 4 7 0.64949
chimesFF: 	5 6 0 -0.45317
chimesFF: 	6 5 0 -0.45317
chimesFF: 	5 6 2 0.77891
chimesFF: 	6 5 2 0.77891
chimesFF: 	5 7 4 0.14689
chimesFF: 	7 5 4 0.14689
chimesFF: 	5 7 6 -0.13925
chimesFF: 	7 5 6 -0.13925
chimesFF: 	5 7 7 -2.58962
chimesFF: 	7 5 7 -2.58962
chimesFF: 	6 6 0 0.26952
chimesFF: 	6 6 7 -0.85779
chimesFF: 	6 7 0 0.59231
chimesFF: 	7 6 0 0.59231
chimesFF: 	6 7 3 0.77217
chimesFF: 	7 6 3 0.77217
chimesFF: 	6 7 5 -0.59791
chimesFF: 	7 6 5 -0.59791
chimesFF: 	6 7 6 0.80935
chimesFF: 	7 6 6 0.80935
chimesFF: 	7 7 0 0.23144
chimesFF: 	7 7 5 -0.16272
chimesFF: 	7 7 6 0.42957
chimesFF: Read 3B parameters for triplet: 25 H H H
chimesFF: 	0 1 1 0.60640
chimesFF: 	1 0 1 0.60640
chimesFF: 	1 1 0 0.60640
chimesFF: 	0 1 2 -0.05699
chimesFF: 	1 0 2 -0.05699
chimesFF: 	0 2 1 -0.05699
chimesFF: 	2 0 1 -0.05699
chimesFF: 	1 2 0 -0.05699
chimesFF: 	2 1 0 -0.05699
chimesFF: 	0 1 3 -1.38187
chimesFF: 	1 0 3 -1.38187
chimesFF: 	0 3 1 -1.38187
chimesFF: 	3 0 1 -1.38187
chimesFF: 	1 3 0 -1.38187
chimesFF: 	3 1 0 -1.38187
chimesFF: 	0 1 5 0.56353
chimesFF: 	1 0 5 0.56353
chimesFF: 	0 5 1 0.56353
chimesFF: 	5 0 1 0.56353
chimesFF: 	1 5 0 0.56353
chimesFF: 	5 1 0 0.56353
chimesFF: 	0 1 6 -0.01344
chimesFF: 	1 0 6 -0.01344
chimesFF: 	0 6 1 -0.01344
chimesFF: 	6 0 1 -0.01344
chimesFF: 	1 6 0 -0.01344
chimesFF: 	6 1 0 -0.01344
chimesFF: 	0 1 7 -0.20413
chimesFF: 	1 0 7 -0.20413
chimesFF: 	0 7 1 -0.20413
chimesFF: 	7 0 1 -0.20413
chimesFF: 	1 7 0 -0.20413
chimesFF: 	7 1 0 -0.20413
chimesFF: 	0 2 3 -0.15802
chimesFF: 	2 0 3 -0.15802
chimesFF: 	0 3 2 -0.15802
chimesFF: 	3 0 2 -0.15802
chimesFF: 	2 3 0 -0.15802
chimesFF: 	3 2 0 -0.15802
chimesFF: 	0 3 3 0.62361
chimesFF: 	3 0 3 0.62361
chimesFF: 	3 3 0 0.62361
chimesFF: 	0 3 4 -0.09051
chimesFF: 	3 0 4 -0.09051
chimesFF: 	0 4 3 -0.09051
chimesFF: 	4 0 3 -0.09051
chimesFF: 	3 4 0 -0.09051
chimesFF: 	4 3 0 -0.09051
chimesFF: 	0 3 6 1.17143
chimesFF: 	3 0 6 1.17143
chimesFF: 	0 6 3 1.17143
chimesFF: 	6 0 3 1.17143
chimesFF: 	3 6 0 1.17143
chimesFF: 	6 3 0 1.17143
chimesFF: 	0 3 7 0.28161
chimesFF: 	3 0 7 0.28161
chimesFF: 	0 7 3 0.28161
chimesFF: 	7 0 3 0.28161
chimesFF: 	3 7 0 0.28161
chimesFF: 	7 3 0 0.28161
chimesFF: 	0 4 7 -0.21382
chimesFF: 	4 0 7 -0.21382
chimesFF: 	0 7 4 -0.21382
chimesFF: 	7 0 4 -0.21382
chimesFF: 	4 7 0 -0.21382
chimesFF: 	7 4 0 -0.21382
chimesFF: 	0 5 6 -0.44000
chimesFF: 	5 0 6 -0.44000
chimesFF: 	0 6 5 -0.44000
chimesFF: 	6 0 5 -0.44000
chimesFF: 	5 6 0 -0.44000
chimesFF: 	6 5 0 -0.44000
chimesFF: 	0 7 7 -0.20285
chimesFF: 	7 0 7 -0.20285
chimesFF: 	7 7 0 -0.20285
chimesFF: 	2 3 7 -0.01581
chimesFF: 	3 2 7 -0.01581
chimesFF: 	2 7 3 -0.01581
chimesFF: 	7 2 3 -0.01581
chimesFF: 	3 7 2 -0.01581
chimesFF: 	7 3 2 -0.01581
chimesFF: 	2 4 7 0.14674
chimesFF: 	4 2 7 0.14674
chimesFF: 	2 7 4 0.14674
chimesFF: 	7 2 4 0.14674
chimesFF: 	4 7 2 0.14674
chimesFF: 	7 4 2 0.14674
chimesFF: 	3 4 7 -0.17956
chimesFF: 	4 3 7 -0.17956
chimesFF: 	3 7 4 -0.17956
chimesFF: 	7 3 4 -0.17956
chimesFF: 	4 7 3 -0.17956
chimesFF: 	7 4 3 -0.17956
chimesFF: 	3 5 6 -0.35148
chimesFF: 	5 3 6 -0.35148
chimesFF: 	3 6 5 -0.35148
chimesFF: 	6 3 5 -0.35148
chimesFF: 	5 6 3 -0.35148
chimesFF: 	6 5 3 -0.35148
chimesFF: 	5 6 6 -0.14149
chimesFF: 	6 5 6 -0.14149
chimesFF: 	6 6 5 -0.14149
chimesFF: 	6 7 7 -0.07087
chimesFF: 	7 6 7 -0.07087
chimesFF: 	7 7 6 -0.07087
chimesFF: Read 3B parameters for triplet: 26 H H N
chimesFF: 	0 1 2 -0.37638
chimesFF: 	0 2 1 -0.37638
chimesFF: 	0 1 5 -0.34593
chimesFF: 	0 5 1 -0.34593
chimesFF: 	0 2 4 -0.83875
chimesFF: 	0 4 2 -0.83875
chimesFF: 	0 3 6 -0.05571
chimesFF: 	0 6 3 -0.05571
chimesFF: 	0 5 6 0.18186
chimesFF: 	0 6 5 0.18186
chimesFF: 	0 5 7 0.06814
chimesFF: 	0 7 5 0.06814
chimesFF: 	1 0 1 0.38296
chimesFF: 	1 1 0 0.38296
chimesFF: 	1 0 7 0.03528
chimesFF: 	1 7 0 0.03528
chimesFF: 	4 6 7 -0.67759
chimesFF: 	4 7 6 -0.67759
chimesFF: 	5 0 3 0.40820
chimesFF: 	5 3 0 0.40820
chimesFF: 	5 0 7 -0.16217
chimesFF: 	5 7 0 -0.16217
chimesFF: 	5 3 4 0.51260
chimesFF: 	5 4 3 0.51260
chimesFF: 	5 5 6 0.40376
chimesFF: 	5 6 5 0.40376
chimesFF: 	5 7 7 -0.43908
chimesFF: 	6 3 6 0.28848
chimesFF: 	6 6 3 0.28848
chimesFF: 	7 0 5 0.27832
chimesFF: 	7 5 0 0.27832
chimesFF: 	7 0 6 -0.25033
chimesFF: 	7 6 0 -0.25033
chimesFF: 	7 2 6 0.40393
chimesFF: 	7 6 2 0.40393
chimesFF: 	7 3 7 0.03550
chimesFF: 	7 7 3 0.03550
chimesFF: Read 3B parameters for triplet: 27 H H O
chimesFF: 	0 1 2 -2.25388
chimesFF: 	0 2 1 -2.25388
chimesFF: 	0 1 5 0.88446
chimesFF: 	0 5 1 0.88446
chimesFF: 	0 1 6 -0.09905
chimesFF: 	0 6 1 -0.09905
chimesFF: 	0 1 7 0.95507
chimesFF: 	0 7 1 0.95507
chimesFF: 	0 2 3 0.81870
chimesFF: 	0 3 2 0.81870
chimesFF: 	0 2 5 -0.35902
chimesFF: 	0 5 2 -0.35902
chimesFF: 	0 2 6 -0.40056
chimesFF: 	0 6 2 -0.40056
chimesFF: 	0 4 5 0.28200
chimesFF: 	0 5 4 0.28200
chimesFF: 	0 4 6 -0.17112
chimesFF: 	0 6 4 -0.17112
chimesFF: 	0 5 5 -0.00998
chimesFF: 	0 6 6 0.02825
chimesFF: 	0 6 7 0.08542
chimesFF: 	0 7 6 0.08542
chimesFF: 	1 0 2 2.71851
chimesFF: 	1 2 0 2.71851
chimesFF: 	1 0 3 1.34098
chimesFF: 	1 3 0 1.34098
chimesFF: 	1 0 5 -1.02522
chimesFF: 	1 5 0 -1.02522
chimesFF: 	1 1 4 -0.79203
chimesFF: 	1 4 1 -0.79203
chimesFF: 	1 3 6 -0.23330
chimesFF: 	1 6 3 -0.23330
chimesFF: 	1 5 7 -0.14536
chimesFF: 	1 7 5 -0.14536
chimesFF: 	1 6 7 -0.00053
chimesFF: 	1 7 6 -0.00053
chimesFF: 	2 0 6 -0.80470
chimesFF: 	2 6 0 -0.80470
chimesFF: 	2 2 4 -1.78644
chimesFF: 	2 4 2 -1.78644
chimesFF: 	2 3 4 -0.32082
chimesFF: 	2 4 3 -0.32082
chimesFF: 	2 4 5 1.10157
chimesFF: 	2 5 4 1.10157
chimesFF: 	2 4 6 -0.33315
chimesFF: 	2 6 4 -0.33315
chimesFF: 	2 4 7 -0.91862
chimesFF: 	2 7 4 -0.91862
chimesFF: 	2 5 6 -0.23693
chimesFF: 	2 6 5 -0.23693
chimesFF: 	2 5 7 0.08934
chimesFF: 	2 7 5 0.08934
chimesFF: 	3 0 1 -0.23785
chimesFF: 	3 1 0 -0.23785
chimesFF: 	3 0 3 -0.04870
chimesFF: 	3 3 0 -0.04870
chimesFF: 	3 1 7 -0.47742
chimesFF: 	3 7 1 -0.47742
chimesFF: 	3 2 6 -0.52891
chimesFF: 	3 6 2 -0.52891
chimesFF: 	3 3 4 0.94035
chimesFF: 	3 4 3 0.94035
chimesFF: 	3 3 5 -1.31467
chimesFF: 	3 5 3 -1.31467
chimesFF: 	3 3 7 0.27734
chimesFF: 	3 7 3 0.27734
chimesFF: 	3 4 6 0.26449
chimesFF: 	3 6 4 0.26449
chimesFF: 	3 7 7 0.04784
chimesFF: 	4 0 5 -1.31742
chimesFF: 	4 5 0 -1.31742
chimesFF: 	4 1 2 0.92878
chimesFF: 	4 2 1 0.92878
chimesFF: 	4 3 5 1.28014
chimesFF: 	4 5 3 1.28014
chimesFF: 	4 3 7 -0.31014
chimesFF: 	4 7 3 -0.31014
chimesFF: 	4 6 6 -0.66546
chimesFF: 	5 0 1 0.27941
chimesFF: 	5 1 0 0.27941
chimesFF: 	5 0 4 -0.06440
chimesFF: 	5 4 0 -0.06440
chimesFF: 	5 0 6 0.73674
chimesFF: 	5 6 0 0.73674
chimesFF: 	5 1 3 -1.14048
chimesFF: 	5 3 1 -1.14048
chimesFF: 	5 1 5 0.40533
chimesFF: 	5 5 1 0.40533
chimesFF: 	5 2 4 2.02921
chimesFF: 	5 4 2 2.02921
chimesFF: 	5 2 5 -0.20324
chimesFF: 	5 5 2 -0.20324
chimesFF: 	5 3 3 1.21942
chimesFF: 	5 3 6 -0.23665
chimesFF: 	5 6 3 -0.23665
chimesFF: 	5 5 6 0.97016
chimesFF: 	5 6 5 0.97016
chimesFF: 	6 0 3 1.45275
chimesFF: 	6 3 0 1.45275
chimesFF: 	6 0 5 -0.59665
chimesFF: 	6 5 0 -0.59665
chimesFF: 	6 1 2 1.45022
chimesFF: 	6 2 1 1.45022
chimesFF: 	6 1 3 1.68137
chimesFF: 	6 3 1 1.68137
chimesFF: 	6 2 3 -0.43700
chimesFF: 	6 3 2 -0.43700
chimesFF: 	6 2 6 0.54848
chimesFF: 	6 6 2 0.54848
chimesFF: 	6 3 5 2.29781
chimesFF: 	6 5 3 2.29781
chimesFF: 	6 3 6 1.23353
chimesFF: 	6 6 3 1.23353
chimesFF: 	6 4 6 -1.03042
chimesFF: 	6 6 4 -1.03042
chimesFF: 	6 4 7 -0.85836
chimesFF: 	6 7 4 -0.85836
chimesFF: 	6 5 6 -0.22407
chimesFF: 	6 6 5 -0.22407
chimesFF: 	6 7 7 0.17334
chimesFF: 	7 0 2 -1.96347
chimesFF: 	7 2 0 -1.96347
chimesFF: 	7 0 4 0.11215
chimesFF: 	7 4 0 0.11215
chimesFF: 	7 0 5 0.39434
chimesFF: 	7 5 0 0.39434
chimesFF: 	7 0 6 -0.10449
chimesFF: 	7 6 0 -0.10449
chimesFF: 	7 1 2 -0.18717
chimesFF: 	7 2 1 -0.18717
chimesFF: 	7 1 7 -0.96194
chimesFF: 	7 7 1 -0.96194
chimesFF: 	7 2 3 1.82300
chimesFF: 	7 3 2 1.82300
chimesFF: 	7 2 4 -0.48978
chimesFF: 	7 4 2 -0.48978
chimesFF: 	7 2 5 -0.66458
chimesFF: 	7 5 2 -0.66458
chimesFF: 	7 2 7 0.18747
chimesFF: 	7 7 2 0.18747
chimesFF: 	7 3 4 -0.42755
chimesFF: 	7 4 3 -0.42755
chimesFF: 	7 3 6 1.41906
chimesFF: 	7 6 3 1.41906
chimesFF: 	7 4 5 0.29459
chimesFF: 	7 5 4 0.29459
chimesFF: 	7 4 7 -0.26070
chimesFF: 	7 7 4 -0.26070
chimesFF: 	7 5 5 0.73714
chimesFF: 	7 5 7 -0.20973
chimesFF: 	7 7 5 -0.20973
chimesFF: 	7 6 6 -0.04328
chimesFF: 	7 7 7 0.28182
chimesFF: Read 3B parameters for triplet: 28 H N N
chimesFF: 	0 2 5 0.30787
chimesFF: 	2 0 5 0.30787
chimesFF: 	0 4 7 -0.22462
chimesFF: 	4 0 7 -0.22462
chimesFF: 	0 5 4 -0.31758
chimesFF: 	5 0 4 -0.31758
chimesFF: 	0 5 7 0.79526
chimesFF: 	5 0 7 0.79526
chimesFF: 	0 6 3 0.10332
chimesFF: 	6 0 3 0.10332
chimesFF: 	0 7 7 -1.44698
chimesFF: 	7 0 7 -1.44698
chimesFF: 	2 4 0 -4.54318
chimesFF: 	4 2 0 -4.54318
chimesFF: 	2 4 2 6.01563
chimesFF: 	4 2 2 6.01563
chimesFF: 	2 4 3 8.27503
chimesFF: 	4 2 3 8.27503
chimesFF: 	2 4 5 -2.66364
chimesFF: 	4 2 5 -2.66364
chimesFF: 	2 6 0 0.16671
chimesFF: 	6 2 0 0.16671
chimesFF: 	2 6 3 -2.10313
chimesFF: 	6 2 3 -2.10313
chimesFF: 	2 6 5 0.47774
chimesFF: 	6 2 5 0.47774
chimesFF: 	2 6 6 1.57880
chimesFF: 	6 2 6 1.57880
chimesFF: 	2 7 0 -1.19898
chimesFF: 	7 2 0 -1.19898
chimesFF: 	3 4 3 1.80210
chimesFF: 	4 3 3 1.80210
chimesFF: 	3 4 5 -0.69957
chimesFF: 	4 3 5 -0.69957
chimesFF: 	3 5 0 -1.16987
chimesFF: 	5 3 0 -1.16987
chimesFF: 	3 5 3 3.30623
chimesFF: 	5 3 3 3.30623
chimesFF: 	3 5 6 -1.72733
chimesFF: 	5 3 6 -1.72733
chimesFF: 	3 5 7 -0.22585
chimesFF: 	5 3 7 -0.22585
chimesFF: 	3 6 4 -0.41403
chimesFF: 	6 3 4 -0.41403
chimesFF: 	3 6 6 0.93069
chimesFF: 	6 3 6 0.93069
chimesFF: 	3 7 0 -1.90656
chimesFF: 	7 3 0 -1.90656
chimesFF: 	3 7 3 5.64695
chimesFF: 	7 3 3 5.64695
chimesFF: 	3 7 5 -0.58458
chimesFF: 	7 3 5 -0.58458
chimesFF: 	3 7 7 4.07784
chimesFF: 	7 3 7 4.07784
chimesFF: 	4 5 3 0.23276
chimesFF: 	5 4 3 0.23276
chimesFF: 	4 6 4 1.05190
chimesFF: 	6 4 4 1.05190
chimesFF: 	5 5 0 2.44041
chimesFF: 	5 5 3 -1.17601
chimesFF: 	5 5 7 1.13719
chimesFF: 	5 7 0 1.06769
chimesFF: 	7 5 0 1.06769
chimesFF: 	6 6 3 0.60320
chimesFF: 	6 6 5 -0.15914
chimesFF: 	6 7 7 -0.93130
chimesFF: 	7 6 7 -0.93130
chimesFF: 	7 7 3 0.62884
chimesFF: 	7 7 5 -0.35709
chimesFF: 	7 7 6 -0.05024
chimesFF: Read 3B parameters for triplet: 29 H N O
chimesFF: 	0 2 5 1.19001
chimesFF: 	0 2 7 -3.96098
chimesFF: 	0 3 3 -0.86072
chimesFF: 	0 3 6 -0.20049
chimesFF: 	0 4 6 0.89312
chimesFF: 	0 6 4 -0.15872
chimesFF: 	0 6 5 0.32334
chimesFF: 	0 7 5 -0.30185
chimesFF: 	0 7 7 0.89252
chimesFF: 	1 0 2 3.46551
chimesFF: 	1 0 3 -3.91961
chimesFF: 	2 1 0 -1.47680
chimesFF: 	2 3 3 1.37055
chimesFF: 	2 4 7 -0.31840
chimesFF: 	2 6 0 -1.39789
chimesFF: 	2 6 6 -0.16562
chimesFF: 	3 4 0 -0.50472
chimesFF: 	3 5 3 0.03529
chimesFF: 	4 0 2 0.64973
chimesFF: 	4 4 6 -0.38285
chimesFF: 	5 0 4 1.67753
chimesFF: 	5 4 0 0.30338
chimesFF: 	5 4 6 0.74545
chimesFF: 	6 0 6 0.43928
chimesFF: 	6 7 6 -0.01468
chimesFF: 	7 6 0 0.55429
chimesFF: 	7 6 3 0.00485
chimesFF: 	7 6 5 -0.55160
chimesFF: Read 3B parameters for triplet: 30 H O O
chimesFF: 	0 2 1 -12.05605
chimesFF: 	2 0 1 -12.05605
chimesFF: 	0 2 4 -4.25250
chimesFF: 	2 0 4 -4.25250
chimesFF: 	0 2 5 2.46371
chimesFF: 	2 0 5 2.46371
chimesFF: 	0 2 6 1.25615
chimesFF: 	2 0 6 1.25615
chimesFF: 	0 2 7 -1.82833
chimesFF: 	2 0 7 -1.82833
chimesFF: 	0 3 6 0.22493
chimesFF: 	3 0 6 0.22493
chimesFF: 	0 3 7 -0.56931
chimesFF: 	3 0 7 -0.56931
chimesFF: 	0 4 4 0.85047
chimesFF: 	4 0 4 0.85047
chimesFF: 	0 4 5 0.31200
chimesFF: 	4 0 5 0.31200
chimesFF: 	0 5 2 -2.16032
chimesFF: 	5 0 2 -2.16032
chimesFF: 	0 5 3 0.11725
chimesFF: 	5 0 3 0.11725
chimesFF: 	0 5 5 -0.15965
chimesFF: 	5 0 5 -0.15965
chimesFF: 	0 6 2 0.79314
chimesFF: 	6 0 2 0.79314
chimesFF: 	0 6 4 -0.23966
chimesFF: 	6 0 4 -0.23966
chimesFF: 	0 7 3 -0.71312
chimesFF: 	7 0 3 -0.71312
chimesFF: 	0 7 5 -0.67674
chimesFF: 	7 0 5 -0.67674
chimesFF: 	1 1 6 -1.23440
chimesFF: 	1 2 4 -4.56662
chimesFF: 	2 1 4 -4.56662
chimesFF: 	1 3 3 -2.44436
chimesFF: 	3 1 3 -2.44436
chimesFF: 	1 4 6 -2.57582
chimesFF: 	4 1 6 -2.57582
chimesFF: 	1 5 3 1.60262
chimesFF: 	5 1 3 1.60262
chimesFF: 	1 7 6 0.34130
chimesFF: 	7 1 6 0.34130
chimesFF: 	1 7 7 -0.90903
chimesFF: 	7 1 7 -0.90903
chimesFF: 	2 2 5 -2.97934
chimesFF: 	2 3 2 -1.51165
chimesFF: 	3 2 2 -1.51165
chimesFF: 	2 3 7 1.08586
chimesFF: 	3 2 7 1.08586
chimesFF: 	2 4 4 -3.21391
chimesFF: 	4 2 4 -3.21391
chimesFF: 	2 4 5 0.19248
chimesFF: 	4 2 5 0.19248
chimesFF: 	2 4 7 -0.13229
chimesFF: 	4 2 7 -0.13229
chimesFF: 	2 5 0 -0.02068
chimesFF: 	5 2 0 -0.02068
chimesFF: 	2 5 3 -0.50489
chimesFF: 	5 2 3 -0.50489
chimesFF: 	2 5 6 0.81922
chimesFF: 	5 2 6 0.81922
chimesFF: 	2 5 7 -0.83343
chimesFF: 	5 2 7 -0.83343
chimesFF: 	2 6 5 0.51878
chimesFF: 	6 2 5 0.51878
chimesFF: 	2 6 7 0.35574
chimesFF: 	6 2 7 0.35574
chimesFF: 	2 7 3 1.60526
chimesFF: 	7 2 3 1.60526
chimesFF: 	2 7 6 -0.28975
chimesFF: 	7 2 6 -0.28975
chimesFF: 	3 4 0 -2.03232
chimesFF: 	4 3 0 -2.03232
chimesFF: 	3 4 6 0.56611
chimesFF: 	4 3 6 0.56611
chimesFF: 	3 4 7 0.28331
chimesFF: 	4 3 7 0.28331
chimesFF: 	3 5 7 -0.59294
chimesFF: 	5 3 7 -0.59294
chimesFF: 	3 6 0 2.63008
chimesFF: 	6 3 0 2.63008
chimesFF: 	3 6 4 0.64256
chimesFF: 	6 3 4 0.64256
chimesFF: 	3 6 6 -0.52590
chimesFF: 	6 3 6 -0.52590
chimesFF: 	3 7 1 -1.40668
chimesFF: 	7 3 1 -1.40668
chimesFF: 	3 7 4 -0.12476
chimesFF: 	7 3 4 -0.12476
chimesFF: 	3 7 5 0.37559
chimesFF: 	7 3 5 0.37559
chimesFF: 	4 4 3 -0.80791
chimesFF: 	4 5 1 -3.25808
chimesFF: 	5 4 1 -3.25808
chimesFF: 	4 5 3 0.87059
chimesFF: 	5 4 3 0.87059
chimesFF: 	4 5 4 1.26297
chimesFF: 	5 4 4 1.26297
chimesFF: 	4 5 5 0.07554
chimesFF: 	5 4 5 0.07554
chimesFF: 	4 5 6 -0.78794
chimesFF: 	5 4 6 -0.78794
chimesFF: 	4 6 3 0.68800
chimesFF: 	6 4 3 0.68800
chimesFF: 	4 6 5 -0.31042
chimesFF: 	6 4 5 -0.31042
chimesFF: 	4 7 1 0.14675
chimesFF: 	7 4 1 0.14675
chimesFF: 	4 7 2 -0.47719
chimesFF: 	7 4 2 -0.47719
chimesFF: 	4 7 3 -0.30954
chimesFF: 	7 4 3 -0.30954
chimesFF: 	4 7 4 0.33833
chimesFF: 	7 4 4 0.33833
chimesFF: 	4 7 6 0.65061
chimesFF: 	7 4 6 0.65061
chimesFF: 	4 7 7 0.15690
chimesFF: 	7 4 7 0.15690
chimesFF: 	5 5 0 0.94628
chimesFF: 	5 6 0 -0.67964
chimesFF: 	6 5 0 -0.67964
chimesFF: 	5 6 6 0.90303
chimesFF: 	6 5 6 0.90303
chimesFF: 	5 7 0 -0.18233
chimesFF: 	7 5 0 -0.18233
chimesFF: 	5 7 2 0.87334
chimesFF: 	7 5 2 0.87334
chimesFF: 	5 7 3 -0.68090
chimesFF: 	7 5 3 -0.68090
chimesFF: 	5 7 6 0.87613
chimesFF: 	7 5 6 0.87613
chimesFF: 	5 7 7 -0.21020
chimesFF: 	7 5 7 -0.21020
chimesFF: 	6 6 2 0.12902
chimesFF: 	6 6 6 -0.58925
chimesFF: 	6 6 7 -0.29780
chimesFF: 	6 7 1 -0.75209
chimesFF: 	7 6 1 -0.75209
chimesFF: 	6 7 5 0.76504
chimesFF: 	7 6 5 0.76504
chimesFF: 	7 7 0 0.06639
chimesFF: 	7 7 3 0.19768
chimesFF: 	7 7 5 0.08133
chimesFF: 	7 7 6 -1.00825
chimesFF: 	7 7 7 -0.80778
chimesFF: Read 3B parameters for triplet: 31 N N N
chimesFF: 	1 3 7 0.23687
chimesFF: 	3 1 7 0.23687
chimesFF: 	1 7 3 0.23687
chimesFF: 	7 1 3 0.23687
chimesFF: 	3 7 1 0.23687
chimesFF: 	7 3 1 0.23687
chimesFF: Read 3B parameters for triplet: 32 N N O
chimesFF: 	7 5 7 -0.66233
chimesFF: 	7 7 5 -0.66233
chimesFF: Read 3B parameters for triplet: 33 N O O
chimesFF: Read 3B parameters for triplet: 34 O O O
chimesFF: 	0 1 2 1.95232
chimesFF: 	1 0 2 1.95232
chimesFF: 	0 2 1 1.95232
chimesFF: 	2 0 1 1.95232
chimesFF: 	1 2 0 1.95232
chimesFF: 	2 1 0 1.95232
chimesFF: 	0 2 3 -2.12255
chimesFF: 	2 0 3 -2.12255
chimesFF: 	0 3 2 -2.12255
chimesFF: 	3 0 2 -2.12255
chimesFF: 	2 3 0 -2.12255
chimesFF: 	3 2 0 -2.12255
chimesFF: 	0 3 6 -0.33646
chimesFF: 	3 0 6 -0.33646
chimesFF: 	0 6 3 -0.33646
chimesFF: 	6 0 3 -0.33646
chimesFF: 	3 6 0 -0.33646
chimesFF: 	6 3 0 -0.33646
chimesFF: 	0 3 7 0.45948
chimesFF: 	3 0 7 0.45948
chimesFF: 	0 7 3 0.45948
chimesFF: 	7 0 3 0.45948
chimesFF: 	3 7 0 0.45948
chimesFF: 	7 3 0 0.45948
chimesFF: 	0 5 6 0.57580
chimesFF: 	5 0 6 0.57580
chimesFF: 	0 6 5 0.57580
chimesFF: 	6 0 5 0.57580
chimesFF: 	5 6 0 0.57580
chimesFF: 	6 5 0 0.57580
chimesFF: 	2 5 7 0.19370
chimesFF: 	5 2 7 0.19370
chimesFF: 	2 7 5 0.19370
chimesFF: 	7 2 5 0.19370
chimesFF: 	5 7 2 0.19370
chimesFF: 	7 5 2 0.19370
chimesFF: 	4 5 7 -0.64106
chimesFF: 	5 4 7 -0.64106
chimesFF: 	4 7 5 -0.64106
chimesFF: 	7 4 5 -0.64106
chimesFF: 	5 7 4 -0.64106
chimesFF: 	7 5 4 -0.64106
chimesFF: Built the following 3-body pair "slow" map:
chimesFF: 	0 AlAlAlAlAlAl
chimesFF: 	1 AlAlAlCAlC
chimesFF: 	2 AlAlAlHAlH
chimesFF: 	3 AlAlAlNAlN
chimesFF: 	4 AlAlAlOAlO
chimesFF: 	1 AlCAlAlAlC
chimesFF: 	1 AlCAlCAlAl
chimesFF: 	5 AlCAlCCC
chimesFF: 	6 AlCAlHCH
chimesFF: 	7 AlCAlNCN
chimesFF: 	8 AlCAlOCO
chimesFF: 	5 AlCCCAlC
chimesFF: 	6 AlCCHAlH
chimesFF: 	7 AlCCNAlN
chimesFF: 	8 AlCCOAlO
chimesFF: 	2 AlHAlAlAlH
chimesFF: 	6 AlHAlCCH
chimesFF: 	2 AlHAlHAlAl
chimesFF: 	9 AlHAlHHH
chimesFF: 	10 AlHAlNHN
chimesFF: 	11 AlHAlOHO
chimesFF: 	6 AlHCHAlC
chimesFF: 	9 AlHHHAlH
chimesFF: 	10 AlHHNAlN
chimesFF: 	11 AlHHOAlO
chimesFF: 	3 AlNAlAlAlN
chimesFF: 	7 AlNAlCCN
chimesFF: 	10 AlNAlHHN
chimesFF: 	3 AlNAlNAlAl
chimesFF: 	12 AlNAlNNN
chimesFF: 	13 AlNAlONO
chimesFF: 	7 AlNCNAlC
chimesFF: 	10 AlNHNAlH
chimesFF: 	12 AlNNNAlN
chimesFF: 	13 AlNNOAlO
chimesFF: 	4 AlOAlAlAlO
chimesFF: 	8 AlOAlCCO
chimesFF: 	11 AlOAlHHO
chimesFF: 	13 AlOAlNNO
chimesFF: 	4 AlOAlOAlAl
chimesFF: 	14 AlOAlOOO
chimesFF: 	8 AlOCOAlC
chimesFF: 	11 AlOHOAlH
chimesFF: 	13 AlONOAlN
chimesFF: 	14 AlOOOAlO
chimesFF: 	5 CCAlCAlC
chimesFF: 	15 CCCCCC
chimesFF: 	16 CCCHCH
chimesFF: 	17 CCCNCN
chimesFF: 	18 CCCOCO
chimesFF: 	6 CHAlCAlH
chimesFF: 	6 CHAlHAlC
chimesFF: 	16 CHCCCH
chimesFF: 	16 CHCHCC
chimesFF: 	19 CHCHHH
chimesFF: 	20 CHCNHN
chimesFF: 	21 CHCOHO
chimesFF: 	19 CHHHCH
chimesFF: 	20 CHHNCN
chimesFF: 	21 CHHOCO
chimesFF: 	7 CNAlCAlN
chimesFF: 	7 CNAlNAlC
chimesFF: 	17 CNCCCN
chimesFF: 	20 CNCHHN
chimesFF: 	17 CNCNCC
chimesFF: 	22 CNCNNN
chimesFF: 	23 CNCONO
chimesFF: 	20 CNHNCH
chimesFF: 	22 CNNNCN
chimesFF: 	23 CNNOCO
chimesFF: 	8 COAlCAlO
chimesFF: 	8 COAlOAlC
chimesFF: 	18 COCCCO
chimesFF: 	21 COCHHO
chimesFF: 	23 COCNNO
chimesFF: 	18 COCOCC
chimesFF: 	24 COCOOO
chimesFF: 	21 COHOCH
chimesFF: 	23 CONOCN
chimesFF: 	24 COOOCO
chimesFF: 	9 HHAlHAlH
chimesFF: 	19 HHCHCH
chimesFF: 	25 HHHHHH
chimesFF: 	26 HHHNHN
chimesFF: 	27 HHHOHO
chimesFF: 	10 HNAlHAlN
chimesFF: 	10 HNAlNAlH
chimesFF: 	20 HNCHCN
chimesFF: 	20 HNCNCH
chimesFF: 	26 HNHHHN
chimesFF: 	26 HNHNHH
chimesFF: 	28 HNHNNN
chimesFF: 	29 HNHONO
chimesFF: 	28 HNNNHN
chimesFF: 	29 HNNOHO
chimesFF: 	11 HOAlHAlO
chimesFF: 	11 HOAlOAlH
chimesFF: 	21 HOCHCO
chimesFF: 	21 HOCOCH
chimesFF: 	27 HOHHHO
chimesFF: 	29 HOHNNO
chimesFF: 	27 HOHOHH
chimesFF: 	30 HOHOOO
chimesFF: 	29 HONOHN
chimesFF: 	30 HOOOHO
chimesFF: 	12 NNAlNAlN
chimesFF: 	22 NNCNCN
chimesFF: 	28 NNHNHN
chimesFF: 	31 NNNNNN
chimesFF: 	32 NNNONO
chimesFF: 	13 NOAlNAlO
chimesFF: 	13 NOAlOAlN
chimesFF: 	23 NOCNCO
chimesFF: 	23 NOCOCN
chimesFF: 	29 NOHNHO
chimesFF: 	29 NOHOHN
chimesFF: 	32 NONNNO
chimesFF: 	32 NONONN
chimesFF: 	33 NONOOO
chimesFF: 	33 NOOONO
chimesFF: 	14 OOAlOAlO
chimesFF: 	24 OOCOCO
chimesFF: 	30 OOHOHO
chimesFF: 	33 OONONO
chimesFF: 	34 OOOOOO
chimesFF: Built the following 3-body pair "fast" map:
chimesFF: 	0 0
chimesFF: 	1 1
chimesFF: 	2 2
chimesFF: 	3 3
chimesFF: 	4 4
chimesFF: 	5 1
chimesFF: 	6 5
chimesFF: 	7 6
chimesFF: 	8 7
chimesFF: 	9 8
chimesFF: 	10 2
chimesFF: 	11 6
chimesFF: 	12 9
chimesFF: 	13 10
chimesFF: 	14 11
chimesFF: 	15 3
chimesFF: 	16 7
chimesFF: 	17 10
chimesFF: 	18 12
chimesFF: 	19 13
chimesFF: 	20 4
chimesFF: 	21 8
chimesFF: 	22 11
chimesFF: 	23 13
chimesFF: 	24 14
chimesFF: 	25 1
chimesFF: 	26 5
chimesFF: 	27 6
chimesFF: 	28 7
chimesFF: 	29 8
chimesFF: 	30 5
chimesFF: 	31 15
chimesFF: 	32 16
chimesFF: 	33 17
chimesFF: 	34 18
chimesFF: 	35 6
chimesFF: 	36 16
chimesFF: 	37 19
chimesFF: 	38 20
chimesFF: 	39 21
chimesFF: 	40 7
chimesFF: 	41 17
chimesFF: 	42 20
chimesFF: 	43 22
chimesFF: 	44 23
chimesFF: 	45 8
chimesFF: 	46 18
chimesFF: 	47 21
chimesFF: 	48 23
chimesFF: 	49 24
chimesFF: 	50 2
chimesFF: 	51 6
chimesFF: 	52 9
chimesFF: 	53 10
chimesFF: 	54 11
chimesFF: 	55 6
chimesFF: 	56 16
chimesFF: 	57 19
chimesFF: 	58 20
chimesFF: 	59 21
chimesFF: 	60 9
chimesFF: 	61 19
chimesFF: 	62 25
chimesFF: 	63 26
chimesFF: 	64 27
chimesFF: 	65 10
chimesFF: 	66 20
chimesFF: 	67 26
chimesFF: 	68 28
chimesFF: 	69 29
chimesFF: 	70 11
chimesFF: 	71 21
chimesFF: 	72 27
chimesFF: 	73 29
chimesFF: 	74 30
chimesFF: 	75 3
chimesFF: 	76 7
chimesFF: 	77 10
chimesFF: 	78 12
chimesFF: 	79 13
chimesFF: 	80 7
chimesFF: 	81 17
chimesFF: 	82 20
chimesFF: 	83 22
chimesFF: 	84 23
chimesFF: 	85 10
chimesFF: 	86 20
chimesFF: 	87 26
chimesFF: 	88 28
chimesFF: 	89 29
chimesFF: 	90 12
chimesFF: 	91 22
chimesFF: 	92 28
chimesFF: 	93 31
chimesFF: 	94 32
chimesFF: 	95 13
chimesFF: 	96 23
chimesFF: 	97 29
chimesFF: 	98 32
chimesFF: 	99 33
chimesFF: 	100 4
chimesFF: 	101 8
chimesFF: 	102 11
chimesFF: 	103 13
chimesFF: 	104 14
chimesFF: 	105 8
chimesFF: 	106 18
chimesFF: 	107 21
chimesFF: 	108 23
chimesFF: 	109 24
chimesFF: 	110 11
chimesFF: 	111 21
chimesFF: 	112 27
chimesFF: 	113 29
chimesFF: 	114 30
chimesFF: 	115 13
chimesFF: 	116 23
chimesFF: 	117 29
chimesFF: 	118 32
chimesFF: 	119 33
chimesFF: 	120 14
chimesFF: 	121 24
chimesFF: 	122 30
chimesFF: 	123 33
chimesFF: 	124 34
chimesFF: Set the following special 3-body outer cutoffs: 
chimesFF: 	0 5.00000 5.00000 5.00000
chimesFF: 	1 5.00000 5.00000 5.00000
chimesFF: 	2 5.00000 5.00000 5.00000
chimesFF: 	3 5.00000 5.00000 5.00000
chimesFF: 	4 5.00000 5.00000 5.00000
chimesFF: 	5 5.00000 5.00000 5.00000
chimesFF: 	6 5.00000 5.00000 5.00000
chimesFF: 	7 5.00000 5.00000 5.00000
chimesFF: 	8 5.00000 5.00000 5.00000
chimesFF: 	9 5.00000 5.00000 5.00000
chimesFF: 	10 5.00000 5.00000 5.00000
chimesFF: 	11 5.00000 5.00000 5.00000
chimesFF: 	12 5.00000 5.00000 5.00000
chimesFF: 	13 5.00000 5.00000 5.00000
chimesFF: 	14 5.00000 5.00000 5.00000
chimesFF: 	15 5.00000 5.00000 5.00000
chimesFF: 	16 5.00000 5.00000 5.00000
chimesFF: 	17 5.00000 5.00000 5.00000
chimesFF: 	18 5.00000 5.00000 5.00000
chimesFF: 	19 5.00000 5.00000 5.00000
chimesFF: 	20 5.00000 5.00000 5.00000
chimesFF: 	21 5.00000 5.00000 5.00000
chimesFF: 	22 5.00000 5.00000 5.00000
chimesFF: 	23 5.00000 5.00000 5.00000
chimesFF: 	24 5.00000 5.00000 5.00000
chimesFF: 	25 5.00000 5.00000 5.00000
chimesFF: 	26 5.00000 5.00000 5.00000
chimesFF: 	27 5.00000 5.00000 5.00000
chimesFF: 	28 5.00000 5.00000 5.00000
chimesFF: 	29 5.00000 5.00000 5.00000
chimesFF: 	30 5.00000 5.00000 5.00000
chimesFF: 	31 5.00000 5.00000 5.00000
chimesFF: 	32 5.00000 5.00000 5.00000
chimesFF: 	33 5.00000 5.00000 5.00000
chimesFF: 	34 5.00000 5.00000 5.00000
chimesFF: 	Setting 3-body max cutoff to: 5.00000
Neighbor list info ...
  update every 1 steps, delay 0 steps, check no
  max neighbors/atom: 10000, page size: 100000
  master list distance cutoff = 7
  ghost atom cutoff = 7
  binsize = 3.5, bins = 5 5 4
  1 neighbor lists, perpetual/occasional/extra = 1 0 0
  (1) pair chimesFF, perpetual
      attributes: full, newton on, ghost
      pair build: full/bin/ghost
      stencil: full/ghost/bin/3d
      bin: standard
Setting up Verlet run ...
  Unit style    : real
  Current step  : 0
  Time step     : 0.1
Updating chimesFF neighbor lists...
chimesFF: Warning: Adding penalty in 2B Cheby calc, r < rmin+penalty_dist 0.747800 0.753000 pair type: 2
chimesFF: 	...Penalty potential = 0.014061
	Rank 0 3-body list size: 7075
	Rank 0 4-body list size: 0
	...update complete
Per MPI rank memory allocation (min/avg/max) = 3.853 | 3.854 | 3.856 Mbytes
Time Step Temp TotEng PotEng KinEng Press Volume Density Enthalpy Pxx Pyy Pzz Lx Ly Lz 
                   0        0                  300    -38110.8449480546    -38366.5984503446         255.75350229      58171.583071964     2464.55697854686     1.71091385237862    -36019.9816691947     53768.1262698688     60260.8095218061      60485.813424217          12.23900032         15.074000359         13.358706116 
Updating chimesFF neighbor lists...
chimesFF: Warning: Adding penalty in 2B Cheby calc, r < rmin+penalty_dist 0.751578 0.753000 pair type: 2
chimesFF: 	...Penalty potential = 0.000287
	Rank 0 3-body list size: 7072
	Rank 0 4-body list size: 0
	...update complete
                 0.1        1     299.903488250458    -38110.8421951977    -38366.5134200945     255.671224896808     58145.7169024165     2464.55697854686     1.71091385237862    -36020.9086249896     53689.6251518544     60301.5184933616     60446.0070620337          12.23900032         15.074000359         13.358706116 
Updating chimesFF neighbor lists...
	Rank 0 3-body list size: 7074
	Rank 0 4-body list size: 0
	...update complete
                 0.2        2     299.387246118965    -38110.8408943846    -38366.0720168375     255.231122452945     58166.6095233334     2464.55697854686     1.71091385237862      -36020.15637996     53699.5494866468     60393.6001844004      60406.678898953          12.23900032         15.074000359         13.358706116 
Updating chimesFF neighbor lists...
	Rank 0 3-body list size: 7074
	Rank 0 4-body list size: 0
	...update complete
                 0.3        3     298.476225777452    -38110.8401458811    -38365.2946128574     254.454466976281     58190.5995025575     2464.55697854686     1.71091385237862    -36019.2933587802     53718.7377377556     60489.8454502598     60363.2153196571          12.23900032         15.074000359         13.358706116 
Updating chimesFF neighbor lists...
	Rank 0 3-body list size: 7075
	Rank 0 4-body list size: 0
	...update complete
                 0.4        4     297.185853155101     -38110.839104892    -38364.1935141436     253.354409251529      58213.247233858     2464.55697854686     1.71091385237862    -36018.4782895797     53739.8479705923     60584.9017064451     60314.9920245364          12.23900032         15.074000359         13.358706116 
Updating chimesFF neighbor lists...
	Rank 0 3-body list size: 7079
	Rank 0 4-body list size: 0
	...update complete
                 0.5        5     295.535640362125    -38110.8377889031    -38362.7853724835     251.947583580438     58233.9887552245     2464.55697854686     1.71091385237862    -36017.7314603507     53762.8430473797     60677.3920988843     60261.7311194094          12.23900032         15.074000359         13.358706116 
Updating chimesFF neighbor lists...
	Rank 0 3-body list size: 7077
	Rank 0 4-body list size: 0
	...update complete
                 0.6        6     293.550177366262    -38110.8362144761    -38361.0911676737     250.254953197574      58252.604452453     2464.55697854686     1.71091385237862    -36017.0607812562     53787.8245154995     60766.7763523995     60203.2124894599          12.23900032         15.074000359         13.358706116 
Updating chimesFF neighbor lists...
	Rank 0 3-body list size: 7076
	Rank 0 4-body list size: 0
	...update complete
                 0.7        7     291.258717386137    -38110.8344070975    -38359.1358639109     248.301456813326     58268.5691886992     2464.55697854686     1.71091385237862    -36016.4851527951     53814.8236247239     60851.5660455112     60139.3178958624          12.23900032         15.074000359         13.358706116 
Updating chimesFF neighbor lists...
	Rank 0 3-body list size: 7076
	Rank 0 4-body list size: 0
	...update complete
                 0.8        8     288.694667722539    -38110.8323964909    -38356.9479710325     246.115574541624     58281.3255899302     2464.55697854686     1.71091385237862    -36016.0246384054     53843.5680083126     60930.5073919525     60069.9013695255          12.23900032         15.074000359         13.358706116 
Updating chimesFF neighbor lists...
	Rank 0 3-body list size: 7097
	Rank 0 4-body list size: 0
	...update complete
                 0.9        9     285.894991110831    -38110.8302110064    -38354.5590285523     243.728817545878     58289.6601760287     2464.55697854686     1.71091385237862    -36015.7228825964     53873.2165662549     61001.9752815217     59993.7886803094          12.23900032         15.074000359         13.358706116 
Updating chimesFF neighbor lists...
	Rank 0 3-body list size: 7097
	Rank 0 4-body list size: 0
	...update complete
                   1       10     282.899566300659    -38110.8278835942      -38352.00306652     241.175182925719     58292.8984164405     2464.55697854686     1.71091385237862     -36015.604162994     53903.3505232785     61064.5391052949     59910.8056207482          12.23900032         15.074000359         13.358706116 
Updating chimesFF neighbor lists...
	Rank 0 3-body list size: 7095
	Rank 0 4-body list size: 0
	...update complete
                 1.1       11     279.750493479533    -38110.8254518858    -38349.3160134683     238.490561582487     58290.4944570093     2464.55697854686     1.71091385237862    -36015.6881368849      53933.994680888     61117.1215467903     59820.3671433497          12.23900032         15.074000359         13.358706116 
Updating chimesFF neighbor lists...
	Rank 0 3-body list size: 7095
	Rank 0 4-body list size: 0
	...update complete
                 1.2       12     276.491359524051    -38110.8229476706    -38346.5350595079     235.712111837332     58281.5560692249     2464.55697854686     1.71091385237862    -36016.0069054596     53964.3229750568     61158.2442274613     59722.1010051566          12.23900032         15.074000359         13.358706116 
Updating chimesFF neighbor lists...
	Rank 0 3-body list size: 7095
	Rank 0 4-body list size: 0
	...update complete
                 1.3       13     273.166471141273    -38110.8204133716    -38343.6980190469     232.877605675269     58265.2837142801     2464.55697854686     1.71091385237862     -36016.589248993     53994.1458268228     61186.7149232133     59614.9903928041          12.23900032         15.074000359         13.358706116 
Updating chimesFF neighbor lists...
	Rank 0 3-body list size: 7110
	Rank 0 4-body list size: 0
	...update complete
                 1.4       14     269.820059090299    -38110.8178842764    -38340.8426346112     230.024750334796     58240.5765911102     2464.55697854686     1.71091385237862    -36017.4747689045     54022.2425783229     61200.7022840332     59498.7849109745          12.23900032         15.074000359         13.358706116 
Updating chimesFF neighbor lists...
	Rank 0 3-body list size: 7109
	Rank 0 4-body list size: 0
	...update complete
                 1.5       15     266.495496048311    -38110.8153996953    -38338.0059212248     227.190521529555     58206.5545791197     2464.55697854686     1.71091385237862    -36018.6951387101     54047.6528965717     61199.3519940094     59372.6588467779          12.23900032         15.074000359         13.358706116 
Updating chimesFF neighbor lists...
	Rank 0 3-body list size: 7109
	Rank 0 4-body list size: 0
	...update complete
                 1.6       16     263.234522576648    -38110.8129969859    -38335.2235005613     224.410503575379      58162.702255332     2464.55697854686     1.71091385237862     -36020.268921634     54069.9385266325     61181.6745757491     59236.4936636144          12.23900032         15.074000359         13.358706116 
Updating chimesFF neighbor lists...
	Rank 0 3-body list size: 7107
	Rank 0 4-body list size: 0
	...update complete
                 1.7       17     260.076505064991    -38110.8107046796    -38332.5289614587     221.718256779048     58108.2700885717     2464.55697854686     1.71091385237862    -36022.2230866331     54088.3785652506     61146.8478577159     59089.5838427486          12.23900032         15.074000359         13.358706116 
Updating chimesFF neighbor lists...
	Rank 0 3-body list size: 7107
	Rank 0 4-body list size: 0
	...update complete
                 1.8       18     257.057743669218    -38110.8085570427    -38329.9532844899     219.144727447225     58042.4094415379     2464.55697854686     1.71091385237862    -36024.5881705744     54102.2181788782     61093.5396594519     58931.4704862837          12.23900032         15.074000359         13.358706116 
Updating chimesFF neighbor lists...
	Rank 0 3-body list size: 7131
	Rank 0 4-body list size: 0
	...update complete
                 1.9       19     254.210836409689     -38110.806579258    -38327.5242850308     216.717705772827     57964.8925224913     2464.55697854686     1.71091385237862    -36027.3723861674     54111.2302425892     61021.2906158204     58762.1567090642          12.23900032         15.074000359         13.358706116 
Updating chimesFF neighbor lists...
	Rank 0 3-body list size: 7132
	Rank 0 4-body list size: 0
	...update complete
                   2       20     251.564124743147    -38110.8047935626    -38325.2661467412     214.461353178594     57875.4474284244     2464.55697854686     1.71091385237862    -36030.5855286686     54114.7242092592     60929.8812751876     58581.7368008263          12.23900032         15.074000359         13.358706116 
Updating chimesFF neighbor lists...
	Rank 0 3-body list size: 7133
	Rank 0 4-body list size: 0
	...update complete
                 2.1       21     249.141231335518    -38110.8032173284    -38323.1990255914     212.395808263006     57774.1761323124     2464.55697854686     1.71091385237862    -36034.2239502316     54112.5220908467     60819.6300454559     58390.3762606346          12.23900032         15.074000359         13.358706116 
Updating chimesFF neighbor lists...
	Rank 0 3-body list size: 7133
	Rank 0 4-body list size: 0
	...update complete
                 2.2       22     246.960694165108    -38110.8018602674    -38321.3387351364     210.536874868987     57661.0335309889     2464.55697854686     1.71091385237862    -36038.2892817133     54104.6343759909     60690.2413621182     58188.2248548576          12.23900032         15.074000359         13.358706116 
Updating chimesFF neighbor lists...
	Rank 0 3-body list size: 7154
	Rank 0 4-body list size: 0
	...update complete
                 2.3       23     245.035713941676     -38110.800727429    -38319.6965341847     208.895806755714     57536.1402373219     2464.55697854686     1.71091385237862    -36042.7771929701     54090.8960559111     60541.8206970066      57975.703959048          12.23900032         15.074000359         13.358706116 
Updating chimesFF neighbor lists...
	Rank 0 3-body list size: 7152
	Rank 0 4-body list size: 0
	...update complete
                 2.4       24     243.374019863115    -38110.7998176756    -38318.2790108302     207.479193154626     57400.0862906464     2464.55697854686     1.71091385237862      -36047.66647506     54071.7545755901     60375.0094051784     57753.4948911707          12.23900032         15.074000359         13.358706116 
Updating chimesFF neighbor lists...
	Rank 0 3-body list size: 7149
	Rank 0 4-body list size: 0
	...update complete
                 2.5       25     241.977853482577    -38110.7991239386    -38317.0880689545     206.288945015952      57253.695760226     2464.55697854686     1.71091385237862    -36052.9275013633     54047.6027039824     60190.8110371922     57522.6735395034          12.23900032         15.074000359         13.358706116 
Updating chimesFF neighbor lists...
	Rank 0 3-body list size: 7151
	Rank 0 4-body list size: 0
	...update complete
                 2.6       26     240.844066090132    -38110.7986306316    -38316.1210086593     205.322378027718     57097.9222892545     2464.55697854686     1.71091385237862    -36058.5259794625     54019.2123921916     59990.2447590107     57284.3097165611          12.23900032         15.074000359         13.358706116 
Updating chimesFF neighbor lists...
	Rank 0 3-body list size: 7150
	Rank 0 4-body list size: 0
	...update complete
                 2.7       27      239.96433612758    -38110.7983195778    -38315.3707175422     204.572397964412     56933.6532970566     2464.55697854686     1.71091385237862    -36064.4299946365     53987.0899282401     59774.5845862314     57039.2853766983          12.23900032         15.074000359         13.358706116 
Updating chimesFF neighbor lists...
	Rank 0 3-body list size: 7149
	Rank 0 4-body list size: 0
	...update complete
                 2.8       28     239.325496790465    -38110.7981654346    -38314.8259454061     204.027779971518     56762.2573751907     2464.55697854686     1.71091385237862    -36070.5903302075     53952.2666008309     59545.5466659948     56788.9588587463          12.23900032         15.074000359         13.358706116 
Updating chimesFF neighbor lists...
	Rank 0 3-body list size: 7146
	Rank 0 4-body list size: 0
	...update complete
                 2.9       29     238.909947602905    -38110.7981409039    -38314.4716603417     203.673519437878     56585.1485483612     2464.55697854686     1.71091385237862    -36076.9561345373     53915.8429658392     59304.6900946192     56534.9125846251          12.23900032         15.074000359         13.358706116 
Updating chimesFF neighbor lists...
	Rank 0 3-body list size: 7147
	Rank 0 4-body list size: 0
	...update complete
                   3       30     238.696145760255    -38110.7982142975    -38314.2894651685     203.491250871032     56403.8161967405     2464.55697854686     1.71091385237862    -36083.4738430932     53878.9236741661     59053.8885065885     56278.6364094669          12.23900032         15.074000359         13.358706116 
Updating chimesFF neighbor lists...
	Rank 0 3-body list size: 7148
	Rank 0 4-body list size: 0
	...update complete
                 3.1       31     238.659167537169     -38110.798350732    -38314.2580772361     203.459726504156     56219.9353719229     2464.55697854686     1.71091385237862    -36090.0832145527     53842.8199440348     58795.0863408628      56021.899830871          12.23900032         15.074000359         13.358706116 
Updating chimesFF neighbor lists...
	Rank 0 3-body list size: 7148
	Rank 0 4-body list size: 0
	...update complete
                 3.2       32     238.771325738605    -38110.7985140378    -38314.3538567181     203.555342680249     56035.3846825338     2464.55697854686     1.71091385237862    -36096.7166898496     53808.8595079255     58530.4294762008      55766.865063475          12.23900032         15.074000359         13.358706116 
Updating chimesFF neighbor lists...
	Rank 0 3-body list size: 7170
	Rank 0 4-body list size: 0
	...update complete
                 3.3       33     239.002812152336    -38110.7986699408    -38314.5513574912     203.752687550396     55851.7606685963     2464.55697854686     1.71091385237862     -36103.316850215     53778.1633744848     58262.0074265279     55515.1112047762          12.23900032         15.074000359         13.358706116 
Updating chimesFF neighbor lists...
	Rank 0 3-body list size: 7170
	Rank 0 4-body list size: 0
	...update complete
                 3.4       34     239.322350665355    -38110.7987818656    -38314.8238797288     204.025097863134      55670.962145721     2464.55697854686     1.71091385237862    -36109.8154098764     53752.2879474379       57992.08592584     55268.5125638852          12.23900032         15.074000359         13.358706116 
Updating chimesFF neighbor lists...
	Rank 0 3-body list size: 7170
	Rank 0 4-body list size: 0
	...update complete
                 3.5       35     239.697860640093    -38110.7988140844    -38315.1440385848     204.345224500413     55494.5246906312     2464.55697854686     1.71091385237862    -36116.1571398174      53732.328213913     57722.7371530683     55028.5087049122          12.23900032         15.074000359         13.358706116 
Updating chimesFF neighbor lists...
	Rank 0 3-body list size: 7178
	Rank 0 4-body list size: 0
	...update complete
                 3.6       36      240.09710993544    -38110.7987333945    -38315.4843225801     204.685589185653     55324.0867775076     2464.55697854686     1.71091385237862    -36122.2831150994     53719.5377499956     57456.0421247855     54796.6804577417          12.23900032         15.074000359         13.358706116 
Updating chimesFF neighbor lists...
	Rank 0 3-body list size: 7174
	Rank 0 4-body list size: 0
	...update complete
                 3.7       37     240.488331340183     -38110.798510531    -38315.8176205314     205.019110000433     55161.5778224788     2464.55697854686     1.71091385237862    -36128.1239573851     53715.4021299906     57194.2865340058     54575.0448034399          12.23900032         15.074000359         13.358706116 
Updating chimesFF neighbor lists...
chimesFF: Warning: Adding penalty in 2B Cheby calc, r < rmin+penalty_dist 0.750480 0.753000 pair type: 2
chimesFF: 	...Penalty potential = 0.001601
	Rank 0 3-body list size: 7203
	Rank 0 4-body list size: 0
	...update complete
                 3.8       38     240.836645191264    -38110.8000676393    -38316.1161192641       205.3160516248     55021.5149004538     2464.55697854686     1.71091385237862    -36133.1598010802     53743.8587012952     56953.6608203412      54367.025179725          12.23900032         15.074000359         13.358706116 
Updating chimesFF neighbor lists...
chimesFF: Warning: Adding penalty in 2B Cheby calc, r < rmin+penalty_dist 0.746758 0.753000 pair type: 2
chimesFF: 	...Penalty potential = 0.024324
	Rank 0 3-body list size: 7223
	Rank 0 4-body list size: 0
	...update complete
                 3.9       39     241.091861022924    -38110.8018583407    -38316.3354844415     205.533626100756     54946.1347872084     2464.55697854686     1.71091385237862    -36135.8709818724     53877.5134933577     56781.0674165107     54179.8234517569          12.23900032         15.074000359         13.358706116 
Updating chimesFF neighbor lists...
chimesFF: Warning: Adding penalty in 2B Cheby calc, r < rmin+penalty_dist 0.743151 0.753000 pair type: 2
chimesFF: 	...Penalty potential = 0.095546
	Rank 0 3-body list size: 7223
	Rank 0 4-body list size: 0
	...update complete
                   4       40     241.197275905745    -38110.8023791272    -38316.4258726462     205.623493519006     54932.9492865268     2464.55697854686     1.71091385237862    -36136.3454295788     54110.4256608436     56674.1194472628     54014.3027514741          12.23900032         15.074000359         13.358706116 
Updating chimesFF neighbor lists...
chimesFF: Warning: Adding penalty in 2B Cheby calc, r < rmin+penalty_dist 0.739831 0.753000 pair type: 2
chimesFF: 	...Penalty potential = 0.228389
	Rank 0 3-body list size: 7222
	Rank 0 4-body list size: 0
	...update complete
                 4.1       41     241.116691977216    -38110.8006394311    -38316.3554342103     205.554794779174     54966.6570860603     2464.55697854686     1.71091385237862    -36135.1321292454     54413.7998107304     56616.7372166051     53869.4342308455          12.23900032         15.074000359         13.358706116 
Updating chimesFF neighbor lists...
chimesFF: Warning: Adding penalty in 2B Cheby calc, r < rmin+penalty_dist 0.737014 0.753000 pair type: 2
chimesFF: 	...Penalty potential = 0.408526
	Rank 0 3-body list size: 7246
	Rank 0 4-body list size: 0
	...update complete
                 4.2       42     240.850682638614    -38110.7963249607    -38316.1243436732     205.328018712543      55020.972937608     2464.55697854686     1.71091385237862    -36133.1755381915     54740.0166256085     56580.3572914687     53742.5448957468          12.23900032         15.074000359         13.358706116 
Updating chimesFF neighbor lists...
chimesFF: Warning: Adding penalty in 2B Cheby calc, r < rmin+penalty_dist 0.734927 0.753000 pair type: 2
chimesFF: 	...Penalty potential = 0.590338
	Rank 0 3-body list size: 7224
	Rank 0 4-body list size: 0
	...update complete
                 4.3       43     240.439928141284    -38110.7904963764    -38315.7683420847     204.977845708297     55061.9696907933     2464.55697854686     1.71091385237862    -36131.6961618496     55028.6908099127     56527.9549312299     53629.2633312372          12.23900032         15.074000359         13.358706116 
Updating chimesFF neighbor lists...
chimesFF: Warning: Adding penalty in 2B Cheby calc, r < rmin+penalty_dist 0.733763 0.753000 pair type: 2
chimesFF: 	...Penalty potential = 0.711888
	Rank 0 3-body list size: 7253
	Rank 0 4-body list size: 0
	...update complete
                 4.4       44     239.946054799683    -38110.7853879528    -38315.3422008718     204.556812918957     55057.1670369459     2464.55697854686     1.71091385237862    -36131.8636753841     55222.1565691334     56424.0178361969     53525.3267055075          12.23900032         15.074000359         13.358706116 
Updating chimesFF neighbor lists...
chimesFF: Warning: Adding penalty in 2B Cheby calc, r < rmin+penalty_dist 0.733640 0.753000 pair type: 2
chimesFF: 	...Penalty potential = 0.725641
	Rank 0 3-body list size: 7254
	Rank 0 4-body list size: 0
	...update complete
                 4.5       45      239.41455252861    -38110.7830121303    -38314.8867131583      204.10370102795     54985.2879935844     2464.55697854686     1.71091385237862     -36134.444850573     55283.4871139466     56245.3166756499     53427.0601911566          12.23900032         15.074000359         13.358706116 
Updating chimesFF neighbor lists...
chimesFF: Warning: Adding penalty in 2B Cheby calc, r < rmin+penalty_dist 0.734571 0.753000 pair type: 2
chimesFF: 	...Penalty potential = 0.625949
	Rank 0 3-body list size: 7282
	Rank 0 4-body list size: 0
	...update complete
                 4.6       46     238.842288138487    -38110.7836165044     -38314.399455459     203.615838954584     54844.2919098236     2464.55697854686     1.71091385237862    -36139.5132821994     55209.2513093571     55990.0960752324     53333.5283448813          12.23900032         15.074000359         13.358706116 
Updating chimesFF neighbor lists...
chimesFF: Warning: Adding penalty in 2B Cheby calc, r < rmin+penalty_dist 0.736460 0.753000 pair type: 2
chimesFF: 	...Penalty potential = 0.452488
	Rank 0 3-body list size: 7328
	Rank 0 4-body list size: 0
	...update complete
[...]
chimesFF: 	...Penalty potential = 0.000908
                  47      470     361.870990445114    -38103.0344918179    -38411.5337357628     308.499243944963     43148.2993466572     2464.55697854686     1.71091385237862    -36552.1536341047     52430.5166146057     40386.1405371725     36628.2408881933          12.23900032         15.074000359         13.358706116 
Updating chimesFF neighbor lists...
	Rank 0 3-body list size: 6345
	Rank 0 4-body list size: 0
	...update complete
chimesFF: Warning: Adding penalty in 2B Cheby calc, r < rmin+penalty_dist 0.741361 0.753000 pair type: 2
chimesFF: 	...Penalty potential = 0.157665
chimesFF: Warning: Adding penalty in 2B Cheby calc, r < rmin+penalty_dist 0.983659 0.991000 pair type: 9
chimesFF: 	...Penalty potential = 0.039555
                47.1      471     361.284763178282    -38103.0211437446    -38411.0206221008     307.999478356196     43466.1251806433     2464.55697854686     1.71091385237862     -36540.716660779     53218.9249675063     40110.6081567957     37068.8424176279          12.23900032         15.074000359         13.358706116 
Updating chimesFF neighbor lists...
	Rank 0 3-body list size: 6321
	Rank 0 4-body list size: 0
	...update complete
chimesFF: Warning: Adding penalty in 2B Cheby calc, r < rmin+penalty_dist 0.738857 0.753000 pair type: 2
chimesFF: 	...Penalty potential = 0.282923
chimesFF: Warning: Adding penalty in 2B Cheby calc, r < rmin+penalty_dist 0.979026 0.991000 pair type: 9
chimesFF: 	...Penalty potential = 0.171694
                47.2      472     360.267431769814    -38103.0018406974    -38410.1340321513     307.132191453845     43955.8412771506     2464.55697854686     1.71091385237862    -36523.0954746614     54343.0971919733     39908.3541511003     37616.0724883782          12.23900032         15.074000359         13.358706116 
Updating chimesFF neighbor lists...
	Rank 0 3-body list size: 6321
	Rank 0 4-body list size: 0
	...update complete
chimesFF: Warning: Adding penalty in 2B Cheby calc, r < rmin+penalty_dist 0.737023 0.753000 pair type: 2
chimesFF: 	...Penalty potential = 0.407829
chimesFF: Warning: Adding penalty in 2B Cheby calc, r < rmin+penalty_dist 0.975161 0.991000 pair type: 9
chimesFF: 	...Penalty potential = 0.397355
                47.3      473      358.81564393412    -38102.9776605061    -38408.8721858814     305.894525375309     44525.6271901658     2464.55697854686     1.71091385237862    -36502.5914591377     55602.8369023506     39777.6987782773     38196.3458898694          12.23900032         15.074000359         13.358706116 
Updating chimesFF neighbor lists...
	Rank 0 3-body list size: 6318
	Rank 0 4-body list size: 0
	...update complete
chimesFF: Warning: Adding penalty in 2B Cheby calc, r < rmin+penalty_dist 0.736015 0.753000 pair type: 2
chimesFF: 	...Penalty potential = 0.490034
chimesFF: Warning: Adding penalty in 2B Cheby calc, r < rmin+penalty_dist 0.972232 0.991000 pair type: 9
chimesFF: 	...Penalty potential = 0.661098
                47.4      474     357.004913472464    -38102.9517244566    -38407.3025809744     304.350856517737     45081.3730135174     2464.55697854686     1.71091385237862     -36482.590331198     56787.5103616856     39717.4549726658     38739.1537062009          12.23900032         15.074000359         13.358706116 
Updating chimesFF neighbor lists...
	Rank 0 3-body list size: 6326
	Rank 0 4-body list size: 0
	...update complete
chimesFF: Warning: Adding penalty in 2B Cheby calc, r < rmin+penalty_dist 0.735923 0.753000 pair type: 2
chimesFF: 	...Penalty potential = 0.498035
chimesFF: Warning: Adding penalty in 2B Cheby calc, r < rmin+penalty_dist 0.970389 0.991000 pair type: 9
chimesFF: 	...Penalty potential = 0.875631
                47.5      475     354.936588936289    -38102.9281427503    -38405.5157284547     302.587585704406     45542.5326343643     2464.55697854686     1.71091385237862    -36465.9912728413     57706.1708680408      39725.924773693     39195.5022613589          12.23900032         15.074000359         13.358706116 
Updating chimesFF neighbor lists...
	Rank 0 3-body list size: 6323
	Rank 0 4-body list size: 0
	...update complete
chimesFF: Warning: Adding penalty in 2B Cheby calc, r < rmin+penalty_dist 0.736756 0.753000 pair type: 2
chimesFF: 	...Penalty potential = 0.428662
chimesFF: Warning: Adding penalty in 2B Cheby calc, r < rmin+penalty_dist 0.969735 0.991000 pair type: 9
chimesFF: 	...Penalty potential = 0.961644
                47.6      476     352.670882518285    -38102.9096583737    -38403.5657029062     300.656044532522     45859.0907895767     2464.55697854686     1.71091385237862    -36454.5947274355     58225.1053107867     39800.8334036251     39551.3336543184          12.23900032         15.074000359         13.358706116 
Updating chimesFF neighbor lists...
	Rank 0 3-body list size: 6347
	Rank 0 4-body list size: 0
	...update complete
chimesFF: Warning: Adding penalty in 2B Cheby calc, r < rmin+penalty_dist 0.738436 0.753000 pair type: 2
chimesFF: 	...Penalty potential = 0.308903
chimesFF: Warning: Adding penalty in 2B Cheby calc, r < rmin+penalty_dist 0.970303 0.991000 pair type: 9
chimesFF: 	...Penalty potential = 0.886573
                47.7      477     350.182286231849    -38102.8959912359    -38401.4304783816     298.534487145716     46023.1868965641     2464.55697854686     1.71091385237862    -36448.6829480892     58299.4788961153     39939.7019655191      39830.379828058          12.23900032         15.074000359         13.358706116 
Updating chimesFF neighbor lists...
	Rank 0 3-body list size: 6351
	Rank 0 4-body list size: 0
	...update complete
chimesFF: Warning: Adding penalty in 2B Cheby calc, r < rmin+penalty_dist 0.740820 0.753000 pair type: 2
chimesFF: 	...Penalty potential = 0.180686
chimesFF: Warning: Adding penalty in 2B Cheby calc, r < rmin+penalty_dist 0.972048 0.991000 pair type: 9
chimesFF: 	...Penalty potential = 0.680674
                47.8      478      347.36504029148     -38102.883934183    -38399.0166862752     296.132752092177     46067.7318579351     2464.55697854686     1.71091385237862    -36447.0698099058     57981.1321491609     40138.4558416607     40083.6075829838          12.23900032         15.074000359         13.358706116 
Updating chimesFF neighbor lists...
	Rank 0 3-body list size: 6337
	Rank 0 4-body list size: 0
	...update complete
chimesFF: Warning: Adding penalty in 2B Cheby calc, r < rmin+penalty_dist 0.743727 0.753000 pair type: 2
chimesFF: 	...Penalty potential = 0.079743
chimesFF: Warning: Adding penalty in 2B Cheby calc, r < rmin+penalty_dist 0.974855 0.991000 pair type: 9
chimesFF: 	...Penalty potential = 0.420863
                47.9      479     344.086957658898     -38102.869105307    -38396.2072536856     293.338148378581     46055.4619277238     2464.55697854686     1.71091385237862    -36447.4959995677     57403.2227930901     40391.4658158848     40371.6971741966          12.23900032         15.074000359         13.358706116 
Updating chimesFF neighbor lists...
	Rank 0 3-body list size: 6339
	Rank 0 4-body list size: 0
	...update complete
chimesFF: Warning: Adding penalty in 2B Cheby calc, r < rmin+penalty_dist 0.746974 0.753000 pair type: 2
chimesFF: 	...Penalty potential = 0.021878
chimesFF: Warning: Adding penalty in 2B Cheby calc, r < rmin+penalty_dist 0.978558 0.991000 pair type: 9
chimesFF: 	...Penalty potential = 0.192585
                  48      480     340.263217104463    -38102.8480400342    -38392.9264049506     290.078364916431     46061.5296202752     2464.55697854686     1.71091385237862    -36447.2568430058     56744.8188575909     40692.0266088902     40747.7433943445          12.23900032         15.074000359         13.358706116 
Updating chimesFF neighbor lists...
	Rank 0 3-body list size: 6339
	Rank 0 4-body list size: 0
	...update complete
chimesFF: Warning: Adding penalty in 2B Cheby calc, r < rmin+penalty_dist 0.750410 0.753000 pair type: 2
chimesFF: 	...Penalty potential = 0.001737
chimesFF: Warning: Adding penalty in 2B Cheby calc, r < rmin+penalty_dist 0.982979 0.991000 pair type: 9
chimesFF: 	...Penalty potential = 0.051599
                48.1      481     335.916351923976     -38102.819198393    -38389.1918099965     286.372611603456     46157.0834458817     2464.55697854686     1.71091385237862     -36443.793506813     56192.6425344306     41031.8479780175     41246.7598251969          12.23900032         15.074000359         13.358706116 
Updating chimesFF neighbor lists...
	Rank 0 3-body list size: 6336
	Rank 0 4-body list size: 0
	...update complete
chimesFF: Warning: Adding penalty in 2B Cheby calc, r < rmin+penalty_dist 0.987952 0.991000 pair type: 9
chimesFF: 	...Penalty potential = 0.002832
                48.2      482     331.203051480879    -38102.7832715257    -38385.1377394769     282.354467951233     46398.0776950186     2464.55697854686     1.71091385237862    -36435.0955150795     55912.9886944075      41402.362528482     41878.8818621663          12.23900032         15.074000359         13.358706116 
Updating chimesFF neighbor lists...
chimesFF: Warning: Adding penalty in 2B Cheby calc, r < rmin+penalty_dist 0.830048 0.842000 pair type: 13
chimesFF: 	...Penalty potential = 0.170746
	Rank 0 3-body list size: 6337
	Rank 0 4-body list size: 0
	...update complete
                48.3      483      326.05605353859    -38102.8633370922      -38380.82992921     277.966592117834     47099.9008316068     2464.55697854686     1.71091385237862    -36409.9499266918     56126.2866194113     41916.3765415182     43257.0393338911          12.23900032         15.074000359         13.358706116 
Updating chimesFF neighbor lists...
chimesFF: Warning: Adding penalty in 2B Cheby calc, r < rmin+penalty_dist 0.817656 0.842000 pair type: 13
chimesFF: 	...Penalty potential = 1.442719
	Rank 0 3-body list size: 6337
	Rank 0 4-body list size: 0
	...update complete
                48.4      484     320.044754359406     -38102.840036198    -38375.6819255879     272.841889389869     48485.6776049861     2464.55697854686     1.71091385237862    -36360.1176019557      56660.171602077     42676.7926761867     46120.0685366947          12.23900032         15.074000359         13.358706116 
Updating chimesFF neighbor lists...
chimesFF: Warning: Adding penalty in 2B Cheby calc, r < rmin+penalty_dist 0.808018 0.842000 pair type: 13
chimesFF: 	...Penalty potential = 3.924014
	Rank 0 3-body list size: 6339
	Rank 0 4-body list size: 0
	...update complete
                48.5      485     313.680751064335    -38102.7077884578    -38370.1242907433     267.416502285538     50054.3975212883     2464.55697854686     1.71091385237862    -36303.6007984821     57192.5701918801     43475.7023580041     49494.9200139807          12.23900032         15.074000359         13.358706116 
Updating chimesFF neighbor lists...
chimesFF: Warning: Adding penalty in 2B Cheby calc, r < rmin+penalty_dist 0.802031 0.842000 pair type: 13
chimesFF: 	...Penalty potential = 6.385105
	Rank 0 3-body list size: 6339
	Rank 0 4-body list size: 0
	...update complete
                48.6      486     309.077755482389    -38102.5487867337    -38366.0411815489     263.492394815177     51304.8850510364     2464.55697854686     1.71091385237862    -36258.4954790106     57513.7622474511     44119.1525211699     52281.7403844882          12.23900032         15.074000359         13.358706116 
Updating chimesFF neighbor lists...
chimesFF: Warning: Adding penalty in 2B Cheby calc, r < rmin+penalty_dist 0.800378 0.842000 pair type: 13
chimesFF: 	...Penalty potential = 7.210761
	Rank 0 3-body list size: 6338
	Rank 0 4-body list size: 0
	...update complete
                48.7      487     308.610445006801    -38102.4810862607    -38365.5750934399     263.094007179216     51860.0008248737     2464.55697854686     1.71091385237862    -36238.4752325395     57510.6994606726     44488.2506886277     53581.0523253206          12.23900032         15.074000359         13.358706116 
Updating chimesFF neighbor lists...
chimesFF: Warning: Adding penalty in 2B Cheby calc, r < rmin+penalty_dist 0.803266 0.842000 pair type: 13
chimesFF: 	...Penalty potential = 5.811290
	Rank 0 3-body list size: 6341
	Rank 0 4-body list size: 0
	...update complete
                48.8      488     313.092218240292    -38102.5501606142    -38369.4649317965     266.914771182333     51603.6016379488     2464.55697854686     1.71091385237862    -36247.7600719858     57196.6167303365     44579.0881209373     53035.1000625725          12.23900032         15.074000359         13.358706116 
Updating chimesFF neighbor lists...
chimesFF: Warning: Adding penalty in 2B Cheby calc, r < rmin+penalty_dist 0.810346 0.842000 pair type: 13
chimesFF: 	...Penalty potential = 3.171628
	Rank 0 3-body list size: 6349
	Rank 0 4-body list size: 0
	...update complete
                48.9      489     321.086847715111      -38102.68047806    -38376.4107642013     273.730286141318     50728.2048138438     2464.55697854686     1.71091385237862    -36279.3548086084     56697.3524299421      44496.405662823     50990.8563487665          12.23900032         15.074000359         13.358706116 
Updating chimesFF neighbor lists...
chimesFF: Warning: Adding penalty in 2B Cheby calc, r < rmin+penalty_dist 0.820849 0.842000 pair type: 13
chimesFF: 	...Penalty potential = 0.946277
	Rank 0 3-body list size: 6348
	Rank 0 4-body list size: 0
	...update complete
                  49      490     330.046232249806    -38102.7535347151    -38384.1218007668     281.368266051688      49657.293680075     2464.55697854686     1.71091385237862    -36317.9196622247     56194.1499293278     44402.2786600634     48375.4524508336          12.23900032         15.074000359         13.358706116 
Updating chimesFF neighbor lists...
chimesFF: Warning: Adding penalty in 2B Cheby calc, r < rmin+penalty_dist 0.833880 0.842000 pair type: 13
chimesFF: 	...Penalty potential = 0.053535
	Rank 0 3-body list size: 6348
	Rank 0 4-body list size: 0
	...update complete
                49.1      491     338.158198517666    -38102.7069871374     -38390.990799134     288.283811996568     48897.5878568091     2464.55697854686     1.71091385237862    -36345.1792480668      55859.862725607     44452.2681608487     46380.6326839715          12.23900032         15.074000359         13.358706116 
Updating chimesFF neighbor lists...
	Rank 0 3-body list size: 6350
	Rank 0 4-body list size: 0
	...update complete
                49.2      492     345.303150483371    -38102.6176714655    -38396.9926384252     294.374966959644     48814.2987017507     2464.55697854686     1.71091385237862    -36348.0835974568     55790.1426591116     44726.9919271481     45925.7615189924          12.23900032         15.074000359         13.358706116 
Updating chimesFF neighbor lists...
	Rank 0 3-body list size: 6350
	Rank 0 4-body list size: 0
	...update complete
                49.3      493     351.926105162312    -38102.6092882341    -38402.6304013759       300.0211131418     48861.6841839947     2464.55697854686     1.71091385237862    -36346.3720361521     55784.8896575772     45051.7395454511     45748.4233489558          12.23900032         15.074000359         13.358706116 
Updating chimesFF neighbor lists...
	Rank 0 3-body list size: 6350
	Rank 0 4-body list size: 0
	...update complete
                49.4      494     357.958101578439    -38102.5969321042    -38407.7603926101     305.163460505885     48893.3595383988     2464.55697854686     1.71091385237862    -36345.2211716326     55796.8266757697     45382.1016814319     45501.1502579947          12.23900032         15.074000359         13.358706116 
Updating chimesFF neighbor lists...
	Rank 0 3-body list size: 6333
	Rank 0 4-body list size: 0
	...update complete
                49.5      495     363.232373139663    -38102.5807506124    -38412.2405891977     309.659838585256     48913.2965017953     2464.55697854686     1.71091385237862    -36344.4883951565     55829.7196838639     45717.0765592091     45193.0932623128          12.23900032         15.074000359         13.358706116 
Updating chimesFF neighbor lists...
	Rank 0 3-body list size: 6333
	Rank 0 4-body list size: 0
	...update complete
                49.6      496     367.646353656395    -38102.5611215925    -38415.9839300984     313.422808505903     48925.6598366586     2464.55697854686     1.71091385237862     -36344.024390352     55886.5333820379     46055.1518220661     44835.2943058718          12.23900032         15.074000359         13.358706116 
Updating chimesFF neighbor lists...
	Rank 0 3-body list size: 6332
	Rank 0 4-body list size: 0
	...update complete
                49.7      497     371.157074858174    -38102.5385057078    -38418.9542450234     316.415739315632     48934.7803717297     2464.55697854686     1.71091385237862    -36343.6739547508     55969.4939951527     46394.2386438441     44440.6084761923          12.23900032         15.074000359         13.358706116 
Updating chimesFF neighbor lists...
chimesFF: Warning: Adding penalty in 2B Cheby calc, r < rmin+penalty_dist 1.442878 1.443000 pair type: 4
chimesFF: 	...Penalty potential = 0.000000
	Rank 0 3-body list size: 6337
	Rank 0 4-body list size: 0
	...update complete
                49.8      498      373.77417028508    -38102.5134351695    -38421.1602788893     318.646843719827     48945.8878445654     2464.55697854686     1.71091385237862    -36343.2496479215     56079.8392339715     46732.0180468976      44025.806252827          12.23900032         15.074000359         13.358706116 
Updating chimesFF neighbor lists...
chimesFF: Warning: Adding penalty in 2B Cheby calc, r < rmin+penalty_dist 1.441842 1.443000 pair type: 4
chimesFF: 	...Penalty potential = 0.000155
	Rank 0 3-body list size: 6336
	Rank 0 4-body list size: 0
	...update complete
                49.9      499     375.551652330842     -38102.486443858    -38422.6486117727     320.162167914697     48968.7806134004     2464.55697854686     1.71091385237862    -36342.3998210057     56218.2324796236     47065.9902276932     43622.1191328844          12.23900032         15.074000359         13.358706116 
Updating chimesFF neighbor lists...
chimesFF: Warning: Adding penalty in 2B Cheby calc, r < rmin+penalty_dist 1.440815 1.443000 pair type: 4
chimesFF: 	...Penalty potential = 0.001044
	Rank 0 3-body list size: 6335
	Rank 0 4-body list size: 0
	...update complete
                  50      500     376.578929264244    -38102.4581133312    -38423.4960468244     321.037933493162     49011.7175518457     2464.55697854686     1.71091385237862    -36340.8282065736     56384.3308016167     47393.4774516894      43257.344402231          12.23900032         15.074000359         13.358706116 
Loop time of 10.4306 on 36 procs for 500 steps with 287 atoms

Performance: 0.414 ns/day, 57.948 hours/ns, 47.936 timesteps/s
-0.0% CPU use with 36 MPI tasks x no OpenMP threads

MPI task timing breakdown:
Section |  min time  |  avg time  |  max time  |%varavg| %total
---------------------------------------------------------------
Pair    | 1.5124     | 4.6039     | 8.4629     |  70.3 | 44.14
Neigh   | 1.148      | 1.1873     | 1.2347     |   2.0 | 11.38
Comm    | 0.24975    | 4.1288     | 7.2347     |  74.5 | 39.58
Output  | 0.50605    | 0.50626    | 0.51177    |   0.1 |  4.85
Modify  | 0.0031464  | 0.0034519  | 0.0038269  |   0.3 |  0.03
Other   |            | 0.0009014  |            |       |  0.01

Nlocal:        7.97222 ave          12 max           5 min
Histogram: 2 4 9 0 7 9 0 3 1 1
Nghost:        693.167 ave         712 max         681 min
Histogram: 5 5 4 5 5 5 4 0 2 1
Neighs:        0.00000 ave           0 max           0 min
Histogram: 36 0 0 0 0 0 0 0 0 0
FullNghs:      1330.06 ave        2015 max         826 min
Histogram: 2 4 8 1 7 9 0 3 1 1

Total # of neighbors = 47882
Ave neighs/atom = 166.83624
Neighbor list builds = 500
Dangerous builds not checked
Total wall time: 0:00:10
