# Position data file
 
284 atoms
5 atom types
 
    0.000000000    12.239000000 xlo xhi
    0.000000000    15.074000000 ylo yhi
    0.000000000    13.358706000 zlo zhi
    0.000000000    -2.809764000     0.000000000 xy xz yz
 
Masses
 
1    26.982000000
2    12.011000000
3     1.008000000
4    14.007000000
5    15.999000000
 
Atoms
 
1 1 0    10.642200000     7.366040000     6.514440000
2 1 0     0.209242000     0.107734000     0.367172000
3 1 0     1.482130000     6.532750000     5.809510000
4 1 0     7.639500000     8.278680000     7.258760000
5 1 0     9.407290000    13.966500000     0.648058000
6 1 0     0.455842000     1.210790000    12.981900000
7 1 0     4.468020000     7.604380000     6.355300000
8 1 0     6.471120000     0.323284000     0.142918000
9 2 0    11.674500000    12.646200000     1.587580000
10 2 0    -1.978140000     2.680480000    12.198400000
11 2 0    -1.035420000     5.074700000     5.089830000
12 2 0    10.065600000     9.616490000     7.941260000
13 2 0    -0.027582400     8.504240000     4.262260000
14 2 0     9.169990000     6.325540000     8.907640000
15 2 0    10.399200000     1.140620000     2.210070000
16 2 0    -1.961130000    14.025000000    10.079600000
17 2 0     7.152160000    13.536900000     2.271080000
18 2 0     2.742540000     1.416490000    10.902100000
19 2 0     3.832400000     6.229320000     4.192620000
20 2 0     5.249330000     8.743090000     8.949860000
21 2 0     5.932010000    10.163600000     5.840520000
22 2 0     3.344460000     5.004340000     7.295610000
23 2 0     5.367390000     2.722260000     1.110840000
24 2 0     4.779950000    12.105800000    12.590800000
25 2 0    11.474700000    10.351700000     2.556690000
26 2 0    -1.965510000     4.802580000    10.739700000
27 2 0    11.168600000     3.046220000     3.699140000
28 2 0     9.801120000    11.698000000     9.246460000
29 2 0     6.535850000    12.706300000     3.352680000
30 2 0     3.242750000     2.189090000     9.710620000
31 2 0     4.704500000     5.232310000     3.648090000
32 2 0     4.829770000     9.614690000     9.993250000
33 2 0    -0.061392500    11.457300000     2.177780000
34 2 0     9.738440000     3.839130000    11.535400000
35 2 0    10.574400000     4.114410000     4.311540000
36 2 0    -1.723340000    10.840100000     8.460840000
37 2 0     0.159906000     9.655000000     3.408980000
38 2 0     9.162350000     5.526060000    10.149700000
39 2 0    10.128800000     2.180010000     3.247280000
40 2 0    -1.574630000    12.860900000     9.412420000
41 2 0     7.019040000    11.674900000     4.095740000
42 2 0     2.653210000     2.935510000     8.747140000
43 2 0     4.371940000     4.107760000     3.005630000
44 2 0     5.588310000    10.348600000    10.857700000
45 2 0     1.398790000    10.208400000     3.237040000
46 2 0     8.068880000     5.189140000    10.879000000
47 2 0     8.948690000     2.627600000     3.813480000
48 2 0    -0.362549000    12.577500000     8.794020000
49 2 0     5.931620000    11.328100000     4.955650000
50 2 0     3.644740000     3.825580000     8.167290000
51 2 0     5.471850000     3.708240000     2.181480000
52 2 0     4.603090000    11.134400000    11.554100000
53 2 0     4.891800000    12.174100000     4.641970000
54 2 0     4.825850000     3.472090000     8.762310000
55 2 0     6.542830000     4.506190000     2.577210000
56 2 0     3.359460000    10.757900000    11.139600000
57 3 0     0.540040000     7.172580000     7.854380000
58 3 0     8.666730000     8.067140000     5.184740000
59 3 0     7.855810000    14.558100000    11.993700000
60 3 0     2.206850000     0.063921900     1.795440000
61 3 0     2.395600000     8.719530000     6.716120000
62 3 0     6.545760000     6.409270000     6.240690000
63 3 0     5.704010000     0.407216000    12.322000000
64 3 0     4.115510000    13.392600000     1.488560000
65 3 0    10.449000000    10.080100000     2.245560000
66 3 0    -0.972156000     5.181490000    10.587200000
67 3 0    -0.044853300     2.856360000     3.523450000
68 3 0     8.784010000    11.516700000     9.646930000
69 3 0     7.933720000    11.097700000     3.945800000
70 3 0     1.574470000     2.954780000     8.464260000
71 3 0     3.409210000     3.624430000     2.897790000
72 3 0     6.668110000    10.552500000    10.929700000
73 3 0     2.362940000     9.939070000     3.659030000
74 3 0     7.076130000     5.613080000    11.125600000
75 3 0     7.985730000     2.192720000     3.818770000
76 3 0     0.580167000    13.060200000     8.903380000
77 3 0     3.881270000    12.024900000     5.041860000
78 3 0     5.793760000     3.858440000     8.785250000
79 3 0     7.487720000     4.639190000     2.090400000
80 3 0     2.394020000    11.189800000    11.373300000
81 3 0     6.541480000    11.224700000     7.723450000
82 3 0     6.673530000    12.732100000     7.809930000
83 3 0    -0.195652000     7.201470000     1.549770000
84 3 0    -0.274465000     6.048630000     2.542770000
85 3 0     5.196630000     6.613880000    10.216700000
86 3 0     5.931460000     6.238390000     8.828580000
87 3 0     6.650560000     8.395530000    12.050100000
88 3 0     4.543100000     7.527050000    11.983000000
89 3 0     9.831080000    13.380600000     4.614030000
90 3 0    11.163500000    13.982100000     4.164040000
91 3 0     4.742270000     0.577714000     8.223980000
92 3 0     4.966310000    14.999300000     9.606890000
93 3 0     2.715230000     4.701340000     0.722876000
94 3 0     1.730160000     5.657330000     1.408810000
95 3 0    -1.470790000     1.987700000     8.821190000
96 3 0     9.479500000     2.573520000     7.908940000
97 3 0     2.759570000    11.543200000     7.096770000
98 3 0     1.755380000    11.319700000     6.047620000
99 3 0     3.339500000    13.833200000    10.560100000
100 3 0     1.884960000    13.288100000    10.383100000
101 3 0    -0.925615000    14.634300000    12.008000000
102 3 0    -0.551500000     0.500639000     9.741150000
103 3 0     2.782720000     8.498240000     1.062480000
104 3 0     2.894230000     7.103380000     1.672770000
105 3 0     3.725530000     0.808310000     6.181950000
106 3 0     4.875040000     1.852740000     6.268950000
107 3 0    10.283200000    14.618800000     6.645110000
108 3 0     9.769690000     1.019690000     6.583680000
109 3 0    -0.982237000     4.082690000     8.542360000
110 3 0     0.213908000     4.959300000     8.031010000
111 3 0    10.431000000     7.322060000     0.355217000
112 3 0     9.129200000     7.223850000    12.980300000
113 3 0     0.780866000     8.498140000     9.411020000
114 3 0     2.283030000     7.855660000     9.131740000
115 3 0    -1.710310000     9.608120000    10.675700000
116 3 0    -1.187810000     8.225090000    10.544400000
117 3 0     6.232530000    12.515600000     9.736840000
118 3 0     6.474960000    12.699100000    11.370400000
119 3 0     8.662420000     6.438810000     1.217340000
120 3 0     9.210810000     5.560730000     2.385710000
121 3 0     2.567570000     1.513560000     4.123820000
122 3 0     1.798400000     2.470430000     5.076490000
123 3 0    -1.142150000     6.523970000    13.050800000
124 3 0    -1.270440000     8.058390000    12.705500000
125 3 0     8.795190000     8.591920000     0.065120600
126 3 0     8.218760000     9.361860000     2.171160000
127 3 0     5.041930000     0.472206000     3.044690000
128 3 0     4.487740000     0.704841000     4.445010000
129 3 0     1.194540000     3.680890000    11.867200000
130 3 0     1.311130000     5.198700000    11.363100000
131 3 0     4.752100000     3.785130000    12.916400000
132 3 0     2.800340000     4.344920000    11.448000000
133 3 0     5.704510000     3.343520000     4.882870000
134 3 0     5.583270000     4.061620000     6.204270000
135 3 0     5.948670000     8.187960000     0.782041000
136 3 0     6.020260000     6.729660000     1.317420000
137 3 0     3.821130000     6.188650000    11.622900000
138 3 0     2.846030000     7.457500000    11.792400000
139 3 0     6.200330000     0.433860000     5.648210000
140 3 0     7.366240000    14.966200000     4.778190000
141 3 0     8.154520000     4.069710000    12.978600000
142 3 0    10.492800000     4.896790000     0.886313000
143 3 0     1.040230000    13.565900000     5.576620000
144 3 0    -0.019785200    12.350600000     5.254320000
145 3 0    -1.027510000    10.278600000     5.951210000
146 3 0    10.281000000    10.827600000     4.738480000
147 3 0     1.229010000     2.705940000     1.851230000
148 3 0     0.146593000     3.809460000     1.509030000
149 3 0     0.744442000     0.639839000     4.617870000
150 3 0    -0.721610000     0.711052000     5.280660000
151 3 0     4.574600000     9.916880000     0.318118000
152 3 0     0.066548600     9.726650000    12.166800000
153 3 0     1.271860000    12.909100000    12.671000000
154 3 0     0.032857700    12.567800000    11.757800000
155 3 0     5.514020000     9.039960000     3.372570000
156 3 0     4.061310000     9.053350000     2.954740000
157 3 0     0.283600000     6.957880000    11.948900000
158 3 0     1.173380000     7.159210000    10.566300000
159 3 0     6.182310000     2.540310000    12.484500000
160 3 0     5.718740000     2.702970000    11.855400000
161 3 0     1.705810000     0.759543000     6.579120000
162 3 0     0.293571000     0.180322000     6.834300000
163 3 0     7.404140000     0.939562000     9.314320000
164 3 0     8.515120000     1.988810000     9.762770000
165 3 0     5.721300000    11.233500000     0.364596000
166 3 0     2.828660000    12.331000000     1.536960000
167 3 0     0.578210000     0.986690000     8.497480000
168 3 0     0.500824000     1.629690000    10.057200000
169 3 0     7.262720000    14.894000000     7.014970000
170 3 0     6.270320000    14.689300000     8.274600000
171 3 0     5.310430000    10.260300000     1.634570000
172 3 0     7.409130000     9.972000000     0.937398000
173 3 0     8.745970000     3.233820000     5.744420000
174 3 0     7.539110000     2.861110000     6.625380000
175 3 0     9.068440000     9.154590000    12.419200000
176 3 0    -1.740820000     9.861420000    12.810000000
177 3 0    -1.954270000    12.887300000    13.138300000
178 3 0    -2.339590000    11.571800000    12.339800000
179 3 0     4.512670000    12.337200000     7.581650000
180 3 0     3.159680000    13.013300000     8.170270000
181 3 0     8.569990000    13.207600000     6.989790000
182 3 0     9.750100000    12.299000000     6.360880000
183 3 0     7.246600000     8.213050000     3.412400000
184 3 0     8.672930000     7.679880000     3.024930000
185 5 0     0.158278000     7.048820000     6.882260000
186 5 0     8.902460000     7.752060000     6.078160000
187 5 0     8.043910000    14.574000000    12.973000000
188 5 0     2.169220000     0.990358000     1.519170000
189 5 0     2.718930000     7.841870000     6.494800000
190 5 0     6.293520000     7.348860000     6.344420000
191 5 0     5.402200000    15.030800000    13.119900000
192 5 0     4.670990000     0.057945300     0.036406800
193 5 0     8.308510000    13.185500000     1.916540000
194 5 0     1.516100000     1.449770000    11.265500000
195 5 0     2.651650000     5.854720000     4.473400000
196 5 0     6.483130000     8.863290000     8.664210000
197 5 0    10.523200000    12.566000000     1.165820000
198 5 0    -0.700958000     2.670950000    12.297100000
199 5 0     0.153959000     5.307080000     4.783410000
200 5 0     8.979440000     9.127980000     8.317050000
201 5 0     0.992780000     7.826090000     4.576200000
202 5 0     8.029990000     6.643540000     8.433640000
203 5 0     9.545960000     0.223080000     1.985730000
204 5 0    -0.945342000    14.723300000    10.560500000
205 5 0     0.276519000    13.660200000     1.559660000
206 5 0     9.467990000     1.764650000    12.522700000
207 5 0    10.477800000     5.589830000     6.011940000
208 5 0    -1.386440000     9.072860000     7.082460000
209 5 0    11.051000000     8.258360000     4.726760000
210 5 0    10.276200000     6.717200000     8.425700000
211 5 0    11.579900000     1.224030000     1.669830000
212 5 0     9.076160000    14.329000000    10.185100000
213 5 0     7.048970000     9.962480000     6.412270000
214 5 0     2.125640000     5.228360000     6.997960000
215 5 0     4.181690000     2.539020000     0.642213000
216 5 0     5.999580000    12.601200000    12.738000000
217 5 0     4.834840000     9.509530000     6.074680000
218 5 0     4.346970000     5.710350000     6.877790000
219 5 0     6.441720000     2.148730000     0.677710000
220 5 0     3.804120000    12.364100000    13.330000000
221 5 0     6.471890000    14.564000000     1.823120000
222 5 0     3.629980000     0.740513000    11.540700000
223 5 0     4.342510000     7.355150000     4.492530000
224 5 0     4.360270000     7.985810000     8.463160000
225 5 0     1.284850000    11.357700000     2.500920000
226 5 0     8.322840000     4.019790000    11.596700000
227 5 0     9.175520000     3.937810000     4.429270000
228 5 0    -0.408320000    11.314000000     8.284580000
229 5 0     5.224140000    13.116900000     3.722610000
230 5 0     4.627390000     2.373880000     9.591460000
231 5 0     6.109860000     5.345870000     3.610910000
232 5 0     3.450160000     9.772540000    10.174600000
233 5 0     6.015720000    12.027400000     8.039630000
234 5 0     0.425840000     6.578080000     2.075040000
235 5 0     5.566910000     5.839140000     9.678480000
236 5 0     5.965740000     7.976670000    12.641400000
237 5 0    10.621600000    13.173100000     4.086540000
238 5 0     5.018030000    14.839000000     8.649640000
239 5 0     2.380570000     5.618690000     0.662165000
240 5 0     9.880280000     2.552780000     8.831230000
241 5 0     2.173970000    10.754700000     6.717200000
242 5 0     2.659340000    13.638100000     9.888080000
243 5 0    -0.984018000     0.017175800    12.934700000
244 5 0     3.072650000     8.020660000     1.882270000
245 5 0     4.650440000     0.906969000     6.439820000
246 5 0    10.590000000     0.502516000     6.764420000
247 5 0    -0.174886000     4.063530000     7.957190000
248 5 0    11.274400000     7.743320000     0.177854000
249 5 0     1.299190000     7.703740000     9.165680000
250 5 0    -0.940879000     9.130650000    10.306600000
251 5 0     6.755880000    12.951700000    10.435300000
252 5 0     9.352680000     6.420280000     1.937340000
253 5 0     2.201880000     1.583270000     5.030620000
254 5 0    -1.517120000     7.131610000    12.328700000
255 5 0     8.335650000     9.834040000     1.302940000
256 5 0     4.806210000     1.190070000     3.672790000
257 5 0     1.695460000     4.260170000    11.252600000
258 5 0     3.945480000     4.673680000    11.511500000
259 5 0     5.887770000     3.191630000     5.834690000
260 5 0     6.526590000     7.539700000     1.226990000
261 5 0     3.756200000     7.180500000    11.465300000
262 5 0     7.190680000     0.322837000     5.634940000
263 5 0    11.039000000     4.130660000     0.656862000
264 5 0     0.931937000    12.599100000     5.277780000
265 5 0    10.916800000    11.086200000     5.417080000
266 5 0     1.046090000     3.663430000     1.929980000
267 5 0    -0.210814000     0.282774000     4.558410000
268 5 0    -0.270832000     9.431650000    13.068500000
269 5 0     0.986585000    12.806800000    11.757700000
270 5 0     4.818940000     9.677890000     3.156800000
271 5 0     1.144200000     6.731860000    11.490000000
272 5 0     4.511520000     4.738990000    12.825600000
273 5 0     1.220530000     0.171691000     7.158930000
274 5 0     7.531720000     1.712380000     9.961420000
275 5 0     3.664460000    12.607400000     1.110250000
276 5 0    -0.042310100     1.364880000     9.274900000
277 5 0     7.312610000    14.578400000     8.014980000
278 5 0     5.478680000    10.223400000     0.662374000
279 5 0     8.533240000     2.870560000     6.690730000
280 5 0     9.556870000     9.983000000    12.283200000
281 5 0    -1.777990000    12.384200000    12.321900000
282 5 0     3.569400000    12.639600000     7.362390000
283 5 0     9.171810000    13.132600000     6.239660000
284 5 0     8.199700000     8.402080000     3.524690000
