# Position data file
 
128 atoms
5 atom types
 
    0.000000000    12.239000000 xlo xhi
    0.000000000    15.074000000 ylo yhi
    0.000000000    13.358706000 zlo zhi
    0.000000000    -2.809764000     0.000000000 xy xz yz
 
Masses
 
1    26.982000000
2    12.011000000
3     1.008000000
4    14.007000000
5    15.999000000
 
Atoms
 
1 1 0    10.759200000     7.508530000     6.661970000
2 1 0     0.011958500    15.032500000     0.041199300
3 1 0     1.694220000     6.647410000     5.813680000
4 1 0     7.770160000     8.457690000     7.557560000
5 1 0     9.192230000    14.128200000     0.783731000
6 1 0     0.231794000     1.014800000    12.537300000
7 1 0     4.701440000     7.501680000     6.664540000
8 1 0     3.321680000     0.003162860    13.339000000
9 2 0    11.529300000    12.518900000     1.377870000
10 2 0    -2.261290000     2.466270000    11.899200000
11 2 0    -0.794006000     5.060470000     5.247660000
12 2 0    10.146300000     9.954020000     8.270330000
13 2 0     0.134538000     8.606900000     4.339820000
14 2 0     9.339600000     6.654510000     9.065900000
15 2 0    10.643100000     1.060690000     2.269250000
16 2 0    -1.307950000    13.976600000    11.017700000
17 2 0     6.830350000    13.594400000     2.363190000
18 2 0     2.756900000     1.481160000    10.873900000
19 2 0     4.159040000     6.126080000     4.246690000
20 2 0     5.262530000     8.994930000     9.127070000
21 2 0     6.006630000    10.045000000     5.815410000
22 2 0     3.414610000     5.089820000     7.518790000
23 2 0     4.899300000     2.511490000     0.827828000
24 2 0     4.603630000    12.588700000    12.539100000
25 2 0    11.443700000    10.450700000     2.856450000
26 2 0    -2.143250000     4.632750000    10.523100000
27 2 0    -0.713190000     3.047480000     3.654040000
28 2 0    10.082500000    11.982800000     9.700830000
29 2 0     6.266180000    12.690000000     3.410570000
30 2 0     3.315340000     2.179490000     9.698020000
31 2 0     4.766530000     5.318800000     3.176610000
32 2 0     4.739980000     9.897740000    10.144700000
33 2 0    -0.113435000    11.397900000     2.125490000
34 2 0     9.432360000     3.695770000    11.286900000
35 2 0    10.905500000     3.909670000     4.557840000
36 2 0    -1.542760000    11.058400000     8.920940000
37 2 0     0.261087000     9.621410000     3.327440000
38 2 0     9.121030000     5.532840000    10.000600000
39 2 0    10.554200000     2.063020000     3.320080000
40 2 0    -1.109450000    12.855100000    10.159700000
41 2 0     6.838800000    11.618000000     4.001470000
42 2 0     2.689670000     2.925350000     8.752870000
43 2 0     4.095640000     4.378790000     2.445760000
44 2 0     5.409130000    10.748800000    11.000400000
45 2 0     1.458400000     9.993160000     2.714470000
46 2 0     7.896600000     5.156790000    10.534700000
47 2 0     9.414530000     2.232260000     4.093520000
48 2 0     0.107920000    12.544200000     9.559720000
49 2 0     5.812710000    11.068900000     4.834240000
50 2 0     3.677240000     3.820000000     8.245230000
51 2 0     5.099780000     3.670540000     1.724200000
52 2 0     4.390430000    11.407400000    11.732500000
53 2 0     4.663370000    11.825100000     4.653690000
54 2 0     4.921110000     3.395350000     8.700260000
55 2 0     6.348000000     4.258100000     2.064160000
56 2 0     3.157490000    10.809800000    11.451700000
57 3 0     0.444100000     7.171750000     7.922210000
58 3 0     8.666120000     8.277580000     5.455000000
59 3 0     7.639160000    14.268000000    12.087300000
60 3 0     1.824090000     0.875787000     1.171210000
61 3 0     2.592030000     8.561060000     7.041560000
62 3 0     6.805330000     6.391740000     6.695630000
63 3 0     5.508260000     1.055540000    13.138100000
64 3 0     1.269450000    13.915000000    13.149200000
65 3 0    10.347200000    10.286400000     2.990330000
66 3 0    -1.075710000     4.866830000    10.369000000
67 3 0     0.288988000     3.041230000     3.186080000
68 3 0     8.994500000    12.102900000     9.790450000
69 3 0     7.855460000    11.232800000     3.793510000
70 3 0     1.622060000     2.869620000     8.463760000
71 3 0     3.024480000     4.207810000     2.293840000
72 3 0     6.486130000    10.945100000    11.119700000
73 3 0     2.422720000     9.471590000     2.811250000
74 3 0     6.824420000     5.476780000    10.407900000
75 3 0     8.506890000     1.671730000     4.078130000
76 3 0     1.116070000    12.890000000     9.680350000
77 3 0     3.633140000    11.617300000     5.021050000
78 3 0     5.903460000     3.707170000     8.530220000
79 3 0     7.315990000     3.948090000     1.765540000
80 3 0     2.197490000    10.858800000    11.940100000
81 5 0     0.340620000     7.165720000     6.971310000
82 5 0     9.005530000     7.966990000     6.282080000
83 5 0     7.694270000    14.690500000    12.989600000
84 5 0     1.753060000     0.382237000     0.350983000
85 5 0     2.951760000     7.871990000     6.450140000
86 5 0     6.467650000     7.259410000     6.976140000
87 5 0     7.929030000     0.238076000     0.124949000
88 5 0     1.538840000    14.844100000    13.046900000
89 5 0     8.063980000    13.407500000     2.146070000
90 5 0     1.597760000     1.808200000    11.206200000
91 5 0     2.960780000     5.824000000     4.567220000
92 5 0     6.525350000     9.120310000     8.927750000
93 5 0    10.284900000    12.636600000     1.469300000
94 5 0    -0.996946000     2.426680000    11.979900000
95 5 0     0.413439000     5.274160000     5.080650000
96 5 0     8.910110000     9.795130000     8.393520000
97 5 0     1.188830000     7.882580000     4.499830000
98 5 0     8.308080000     7.420520000     8.960850000
99 5 0     9.646210000     0.255297000     2.147980000
100 5 0    -0.368628000    14.884100000    11.088400000
101 5 0     0.132391000    13.304100000     0.774941000
102 5 0     9.168870000     1.555460000    12.258300000
103 5 0    10.576800000     5.791160000     5.891140000
104 5 0    -1.319830000     9.173270000     7.621780000
105 5 0    -0.949774000     8.539600000     4.994600000
106 5 0    -1.769060000     6.759590000     8.471280000
107 5 0    11.760100000     0.962160000     1.677020000
108 5 0    -2.395230000    14.036100000    11.631800000
109 5 0     7.177150000     9.892870000     6.219400000
110 5 0     2.221690000     5.479230000     7.378200000
111 5 0     3.659300000     2.268940000     0.494191000
112 5 0     5.842060000    12.851600000    12.832400000
113 5 0     4.905600000     9.487430000     6.237750000
114 5 0     4.459640000     5.672570000     7.053940000
115 5 0     5.930720000     1.831130000     0.504305000
116 5 0     3.540200000    13.224100000    12.911400000
117 5 0     6.030690000    14.477700000     1.870740000
118 5 0     3.474690000     0.556432000    11.389100000
119 5 0     4.888670000     6.985280000     4.842750000
120 5 0     4.453130000     8.199900000     8.578770000
121 5 0     1.258980000    11.172800000     2.041120000
122 5 0     8.061130000     3.938170000    11.278900000
123 5 0     9.620260000     3.466930000     4.844020000
124 5 0    -0.204490000    11.367200000     8.807380000
125 5 0     4.919530000    12.879600000     3.763400000
126 5 0     4.720860000     2.312020000     9.612830000
127 5 0     6.146480000     5.317700000     2.990290000
128 5 0     3.372240000     9.841990000    10.413900000
