# Position data file
 
308 atoms
5 atom types
 
    0.000000000    11.897070000 xlo xhi
    0.000000000    15.009448000 ylo yhi
    0.000000000    13.739188000 zlo zhi
    0.000000000    -2.816105000     0.000000000 xy xz yz
 
Masses
 
1    26.982000000
2    12.011000000
3     1.008000000
4    14.007000000
5    15.999000000
 
Atoms
 
1 1 0     4.496970000     7.540370000     6.972790000
2 1 0     5.885430000    15.009100000     0.152519000
3 1 0     7.443840000     6.526600000     5.882270000
4 1 0     1.446510000     8.431580000     7.640930000
5 1 0     2.813700000    14.167700000     1.123940000
6 1 0     6.081610000     0.913100000    12.695300000
7 1 0    -1.209970000     6.670440000     6.857480000
8 1 0    -0.018280800     0.295653000     0.090541200
9 2 0     4.748740000     5.344860000     5.180550000
10 2 0     3.889240000     9.639730000     8.661340000
11 2 0     5.393560000    13.181400000     2.223760000
12 2 0     3.536120000     2.105760000    11.947000000
13 2 0     9.710550000     5.844890000     4.395240000
14 2 0    -1.280420000     8.785540000     9.080210000
15 2 0     0.499735000    13.856500000     2.538970000
16 2 0     8.469400000     1.582040000    11.338200000
17 2 0     4.073620000     1.668790000     1.948340000
18 2 0     4.575600000    13.702300000    11.595400000
19 2 0     6.036360000     8.903520000     4.808120000
20 2 0     2.897810000     6.160550000     8.923300000
21 2 0     4.933820000     3.564240000     3.409710000
22 2 0     3.813320000    11.450300000    10.476000000
23 2 0     5.225890000    11.267100000     4.005140000
24 2 0     3.628840000     3.998720000    10.210700000
25 2 0    10.721200000     2.732240000     0.546741000
26 2 0    -1.606910000    11.987100000    13.645300000
27 2 0    -0.144456000    10.190800000     5.854080000
28 2 0     8.984430000     4.404720000     7.318330000
29 2 0     9.636650000     4.076020000     2.521610000
30 2 0    -0.162530000    10.958100000    11.940400000
31 2 0     0.743339000    11.756700000     4.036310000
32 2 0     8.225900000     2.949960000     9.237750000
33 2 0     4.229370000     4.406500000     4.275060000
34 2 0     4.477860000    10.468500000     9.703960000
35 2 0     5.876700000    12.162200000     3.135850000
36 2 0     2.961970000     3.161100000    11.080700000
37 2 0    10.654000000     3.699450000     1.685170000
38 2 0    -1.438100000    11.152800000    12.474700000
39 2 0    -0.226160000    10.971200000     4.622260000
40 2 0     9.214640000     3.495700000     8.405030000
41 2 0    10.247900000     4.660810000     3.634410000
42 2 0    -1.363560000     9.717060000    10.235100000
43 2 0     0.017792700    12.703900000     3.267550000
44 2 0     8.959460000     2.662740000    10.413400000
45 2 0     3.963680000     3.006830000     2.530880000
46 2 0     4.735420000    12.496100000    10.714900000
47 2 0     6.189310000    10.305900000     4.291950000
48 2 0     2.715880000     4.954670000     9.756630000
49 3 0     6.499010000     6.915300000     8.091110000
50 3 0     2.741450000     7.956560000     5.554650000
51 3 0     1.757640000    13.042900000    13.225700000
52 3 0     7.645510000     1.642170000     0.961633000
53 3 0     8.544470000     7.835710000     7.477530000
54 3 0     1.091740000     6.543490000     6.206480000
55 3 0    -0.731787000     0.632327000    13.095000000
56 3 0     9.691520000    14.187800000     0.261954000
57 3 0     0.895541000     4.201610000     1.842630000
58 3 0     8.406730000    11.306400000    12.044400000
59 3 0     9.575320000    10.823500000     4.299100000
60 3 0    -0.577456000     3.455870000     8.635170000
61 3 0     2.213710000     4.153790000     4.778040000
62 3 0     6.455520000    10.369500000     9.060670000
63 3 0     7.921460000    12.432200000     2.684880000
64 3 0     0.918720000     3.084990000    11.659500000
65 3 0     6.029320000     3.276860000     3.375720000
66 3 0     2.737650000    11.420800000    10.769100000
67 3 0     4.288260000    11.460800000     4.558010000
68 3 0     4.715340000     4.056360000    10.015000000
69 3 0     8.617090000     3.928800000     2.316930000
70 3 0     0.713210000    11.560000000    12.602700000
71 3 0     1.815190000    11.648100000     4.112250000
72 3 0     7.180690000     2.859630000     9.018630000
73 3 0    -0.378862000    13.589400000     7.417060000
74 3 0     1.011730000    13.555000000     8.205510000
75 3 0     8.483270000    14.125200000     4.673200000
76 3 0     7.825490000    13.013200000     5.509360000
77 3 0     3.118170000    10.824700000     2.693970000
78 3 0     2.805070000     9.271050000     3.376160000
79 3 0     1.684410000     7.638020000     3.925510000
80 3 0     3.080240000     7.176590000     3.266710000
81 3 0     8.365270000     8.539610000    11.149700000
82 3 0     7.260760000     7.347040000    10.818200000
83 3 0     8.042430000     5.893290000     9.901480000
84 3 0     6.828990000     5.254660000     9.200080000
85 3 0     1.142090000     3.185630000     7.158160000
86 3 0     1.772390000     1.941680000     7.813490000
87 3 0     0.645165000     2.247640000     2.819540000
88 3 0    11.259400000     1.482590000     3.075080000
89 3 0     0.591186000     5.694310000    12.805500000
90 3 0    11.459700000     6.726740000     1.015170000
91 3 0     1.458550000    14.550600000     5.793340000
92 3 0     2.599120000    13.388900000     5.780400000
93 3 0     5.477360000     2.307620000     7.798080000
94 3 0     5.192410000     2.179280000     9.418300000
95 3 0     2.336640000    14.072800000     9.796780000
96 3 0     3.022570000    14.082000000     8.413330000
97 3 0     4.602160000     9.184540000     0.193212000
98 3 0     3.110540000     7.659070000    13.134700000
99 3 0    10.277400000    11.537100000     6.553590000
100 3 0    10.685700000    12.876000000     5.793530000
101 3 0    -1.128100000     5.538060000     9.144940000
102 3 0    -1.858900000     5.002120000    11.183000000
103 3 0    -2.138960000     6.511830000    11.001600000
104 3 0    -2.022120000     7.099470000    13.196000000
105 3 0     0.271298000    13.986500000    11.874100000
106 3 0     1.178290000    11.183900000    12.153100000
107 3 0    -0.448217000     9.933530000     6.760070000
108 3 0     0.337122000     5.927770000     8.602420000
109 3 0     6.354040000     3.550110000    12.528200000
110 3 0     6.990840000     4.765320000    11.641400000
111 3 0     2.874350000     0.834148000     5.040280000
112 3 0     2.583890000     1.738940000     3.813480000
113 3 0     9.775040000    14.141200000     9.485750000
114 3 0     8.298480000    14.004000000     9.183740000
115 3 0    10.230200000    14.715600000     3.189210000
116 3 0     9.414750000     0.219898000     2.010030000
117 3 0     9.931980000     6.388140000     2.068890000
118 3 0     8.841360000     8.331530000     1.056530000
119 3 0     7.405540000     7.992160000     1.483370000
120 3 0     9.898660000     9.917690000     1.879230000
121 3 0     0.083284900    11.435000000     8.825800000
122 3 0     1.523230000    11.073400000     8.867060000
123 3 0     2.442470000    12.022000000     7.189480000
124 3 0     3.918650000    12.524000000     6.949830000
125 3 0     4.379310000     4.064150000     0.213444000
126 3 0     2.948630000     4.666090000     0.748508000
127 3 0     4.657230000     2.564270000     5.686550000
128 3 0     5.764940000     3.516930000     6.010990000
129 3 0     7.061430000     6.150590000     0.921426000
130 3 0     9.501040000     7.106160000     0.121826000
131 3 0     5.387580000     6.964310000    10.127900000
132 3 0     4.993210000     7.103380000    11.627100000
133 3 0     2.744080000     0.378799000     7.048130000
134 3 0     3.863240000     1.226330000     7.938710000
135 3 0     5.671120000    10.276200000    12.657700000
136 3 0     6.599910000     9.031980000    12.207600000
137 3 0     8.588780000    12.819500000    12.658800000
138 3 0     8.066820000    12.240600000     0.544137000
139 3 0     6.587740000    14.370200000     5.102350000
140 3 0     5.379970000     0.464819000     4.850220000
141 3 0     9.645320000     8.125030000     3.314340000
142 3 0     8.393140000     8.902850000     3.717400000
143 3 0     0.026145700     0.722581000     4.770580000
144 3 0    -0.403276000     0.508594000     6.259620000
145 3 0    10.035400000    10.071700000     0.273312000
146 3 0     4.266010000    11.654000000     0.215440000
147 3 0    -0.413580000    14.921800000    10.334900000
148 3 0    -1.091030000    13.307500000    11.433400000
149 3 0     5.826830000     6.745550000     2.036700000
150 3 0     5.102240000     8.328700000     1.944220000
151 3 0     1.216920000     7.094970000    12.582900000
152 3 0     1.121970000     5.593570000    10.943800000
153 3 0    -0.359729000     7.623650000     4.238620000
154 3 0     0.075596500     8.164200000     2.778130000
155 3 0     1.313590000     9.380220000     1.707780000
156 3 0    -0.106762000     9.477530000     1.182510000
157 3 0     0.390080000     4.037360000     4.957960000
158 3 0     1.121000000     2.635100000     5.299160000
159 3 0    -0.719207000     7.066540000    12.260900000
160 3 0     9.474120000    11.833200000     1.116400000
161 3 0     3.531360000     9.629670000     1.405570000
162 3 0     3.345830000    11.405200000    13.371400000
163 3 0     3.678750000     4.887830000    13.131100000
164 3 0     5.014640000     5.424890000    12.594500000
165 3 0     2.338700000     0.606256000    11.150600000
166 3 0     2.608830000     1.022430000     9.564700000
167 3 0     6.178650000    10.896900000     6.689120000
168 3 0     7.664500000    11.349900000     7.283450000
169 3 0     7.175750000    13.540600000    11.887700000
170 3 0     8.551410000    13.342000000    10.848000000
171 3 0     6.167110000    14.166200000     8.583880000
172 3 0     6.472130000     0.638444000     8.571170000
173 3 0     6.951210000    10.341400000     0.528827000
174 3 0     2.530730000     8.406650000    11.948100000
175 3 0     8.208350000     1.180840000     3.118390000
176 3 0     8.022310000     2.215970000     4.202490000
177 3 0     2.969220000     6.866330000     1.090500000
178 3 0     1.591790000     6.081490000     1.200890000
179 3 0     9.056560000     1.088060000     6.334080000
180 3 0     8.998220000    14.592800000     6.642330000
181 3 0    -0.137481000    14.759300000     8.486650000
182 3 0     0.039598300     1.273520000     9.740600000
183 3 0     6.130690000     4.279510000     1.289890000
184 3 0     5.693570000     2.857760000     0.917302000
185 3 0     9.317350000     3.051250000     5.711230000
186 3 0     7.832990000     2.564710000     6.069340000
187 3 0     9.997310000     6.805170000     0.656628000
188 3 0     8.359830000     5.990590000    12.458700000
189 3 0     5.874870000    12.679500000     7.214400000
190 3 0     5.289010000    14.020100000     6.581290000
191 3 0     8.599190000    10.527800000     9.080180000
192 3 0     8.875360000    11.992700000     8.654760000
193 4 0    -0.072243900     4.082670000     2.268340000
194 4 0     9.316120000    10.819800000    11.803500000
195 4 0    10.483700000    11.301900000     4.051480000
196 4 0    -1.492940000     3.413400000     9.036420000
197 4 0     2.891570000     4.366930000     3.921310000
198 4 0     5.768240000    10.943100000     9.589200000
199 4 0     7.213780000    11.869000000     3.203300000
200 4 0     1.681600000     3.615020000    11.173900000
201 4 0     2.782020000     3.672490000     2.727420000
202 4 0     5.931500000    12.170000000    10.172700000
203 4 0     7.412940000    10.780100000     3.965430000
204 4 0     1.500880000     4.774020000    10.409400000
205 4 0    -0.281024000     4.572280000     3.517180000
206 4 0     9.352760000     9.913880000    10.805700000
207 4 0    10.577600000    12.472100000     3.402680000
208 4 0    -1.680960000     3.048150000    10.406300000
209 5 0     6.007200000     5.555690000     5.110720000
210 5 0     2.597000000     9.487810000     8.666040000
211 5 0     4.131830000    13.446400000     2.304750000
212 5 0     4.712940000     1.735170000    11.693000000
213 5 0     6.335590000     7.170590000     7.157740000
214 5 0     2.852660000     8.075920000     6.549060000
215 5 0     1.365760000    14.429200000    13.610800000
216 5 0     7.668970000     0.818667000     0.399119000
217 5 0     8.460660000     6.039460000     4.421380000
218 5 0    -0.259509000     8.966880000     8.274150000
219 5 0     1.724630000    14.065900000     2.656200000
220 5 0     7.227870000     1.409700000    11.261400000
221 5 0     8.946750000     7.349020000     6.732530000
222 5 0     0.469639000     7.256930000     6.444530000
223 5 0    -1.116100000    14.915000000    13.576600000
224 5 0    10.096600000     0.054133800     0.011502300
225 5 0     2.961440000     1.043500000     1.788920000
226 5 0     5.658850000    14.353500000    11.788500000
227 5 0     7.043920000     8.120070000     4.776270000
228 5 0     1.847060000     6.870430000     8.789520000
229 5 0     6.826010000     2.636050000    13.492200000
230 5 0     2.160480000    12.526700000     0.594146000
231 5 0     0.999655000     9.846290000     6.227480000
232 5 0     7.808740000     4.799650000     7.053650000
233 5 0     3.957960000     5.898490000     6.027560000
234 5 0     4.722690000     9.096410000     7.853500000
235 5 0     6.208050000    13.718300000     1.419440000
236 5 0     2.744050000     1.542810000    12.777400000
237 5 0     5.208720000     1.180160000     1.679060000
238 5 0     3.492340000    13.985200000    12.226100000
239 5 0     4.930890000     8.715150000     5.387510000
240 5 0     4.089600000     6.425170000     8.479770000
241 5 0    -0.088716500     2.096600000     0.497002000
242 5 0    11.819100000    12.236900000     0.188216000
243 5 0    10.575300000    10.024700000     6.419110000
244 5 0     9.997610000     4.801780000     6.658600000
245 5 0    10.564400000     6.566170000     4.982560000
246 5 0     9.763520000     7.861210000     9.057300000
247 5 0    -0.230469000    14.538700000     1.711210000
248 5 0     9.279350000     0.888307000    12.005900000
249 5 0     0.359186000    14.194000000     7.776450000
250 5 0     7.930730000    13.987300000     5.458610000
251 5 0     2.631150000     9.959850000     2.664260000
252 5 0     2.679410000     7.574330000     4.074870000
253 5 0     7.753960000     7.830690000    11.524000000
254 5 0     7.104510000     6.095860000     9.616800000
255 5 0     1.134910000     2.699830000     7.976580000
256 5 0     0.227109000     1.728880000     3.561440000
257 5 0     0.400931000     6.251180000     0.430297000
258 5 0     2.463000000    14.386800000     5.699780000
259 5 0     5.357180000     1.722480000     8.565980000
260 5 0     2.733860000    13.475700000     9.068540000
261 5 0     2.439460000     8.288590000    12.906600000
262 5 0    10.480600000    12.543900000     6.644150000
263 5 0     9.699520000     5.631570000    10.531000000
264 5 0    -1.656820000     7.548790000    12.293200000
265 5 0    -0.259525000    10.307000000    10.746900000
266 5 0    -0.581840000     5.777710000     8.339530000
267 5 0     6.154000000     4.334460000    11.888700000
268 5 0     2.987790000     1.731880000     4.709470000
269 5 0     9.087000000    13.507800000     9.595850000
270 5 0     9.548990000     0.380515000     2.962720000
271 5 0    10.308100000     7.117310000     1.481190000
272 5 0     7.944830000     8.719440000     1.092520000
273 5 0     0.929390000    11.717000000     8.435040000
274 5 0     3.152160000    11.982100000     6.469130000
275 5 0     3.369910000     4.127000000     0.022046700
276 5 0     5.555940000     2.553480000     6.006070000
277 5 0     6.907960000     6.085170000     1.908670000
278 5 0     5.242830000     7.624380000    10.802400000
279 5 0     2.960720000     0.903071000     7.873290000
280 5 0     6.609580000     9.987130000    12.518000000
281 5 0     8.875090000    12.675700000     0.986989000
282 5 0     5.591930000    14.521300000     4.817220000
283 5 0     9.339930000     9.033350000     3.574110000
284 5 0    -0.158792000     0.021552900     5.469810000
285 5 0     1.642020000    11.982900000    13.019300000
286 5 0    -0.223744000    13.629500000    11.088300000
287 5 0     4.974700000     7.434410000     2.291920000
288 5 0     0.502777000     6.485910000    12.192200000
289 5 0     0.314207000     8.204870000     3.737580000
290 5 0     0.632359000     8.811600000     1.273370000
291 5 0     1.107890000     3.616950000     5.532100000
292 5 0    10.391800000    10.391300000     1.202860000
293 5 0     4.331640000     9.937030000     0.838026000
294 5 0     4.081260000     5.751280000    12.816100000
295 5 0     1.944720000     0.713558000    10.261100000
296 5 0     6.865710000    11.599200000     6.635740000
297 5 0     8.156650000    13.382700000    11.818200000
298 5 0     6.838590000    14.795300000     8.963380000
299 5 0     4.320350000    11.094100000    13.638300000
300 5 0     7.463950000     1.792250000     3.438630000
301 5 0     2.543730000     6.151740000     1.615700000
302 5 0     9.323740000     0.422715000     7.063550000
303 5 0    -0.667611000     0.651674000     9.678350000
304 5 0     5.876250000     3.742190000     0.506568000
305 5 0     8.683120000     2.298470000     5.611930000
306 5 0     8.876780000     5.439340000    13.138100000
307 5 0     5.171560000    13.459900000     7.365130000
308 5 0     8.712820000    11.097300000     8.307210000
