# Position data file
 
128 atoms
5 atom types
 
    0.000000000    12.219991000 xlo xhi
    0.000000000    14.620911000 ylo yhi
    0.000000000    13.745848000 zlo zhi
    0.000000000    -2.565748000     0.000000000 xy xz yz
 
Masses
 
1    26.982000000
2    12.011000000
3     1.008000000
4    14.007000000
5    15.999000000
 
Atoms
 
1 1 0     7.935600000     8.193830000     5.966850000
2 1 0     3.035710000     0.933425000     0.932126000
3 1 0     1.798080000     6.431090000     7.761430000
4 1 0     6.573460000    13.709100000    12.933000000
5 1 0    10.907100000     7.251770000     6.854580000
6 1 0     9.642440000     0.002724220    13.682900000
7 1 0     4.835020000     7.336780000     6.891250000
8 1 0     6.082330000     0.038060800     0.032420100
9 2 0    -0.617253000     5.906210000     9.348250000
10 2 0     9.007500000    13.236900000    11.298700000
11 2 0    10.377000000     8.746000000     4.488140000
12 2 0     0.597122000     1.393820000     2.442850000
13 2 0     5.493090000     9.768000000     5.445910000
14 2 0     5.545240000     2.516600000     1.429720000
15 2 0     4.264610000     4.854140000     8.287400000
16 2 0     4.163530000    12.134400000    12.318300000
17 2 0    -1.271870000     2.567630000    13.013800000
18 2 0     9.602660000     9.708830000     7.684250000
19 2 0    10.846300000    12.251000000     0.923216000
20 2 0     0.085601500     4.774300000     6.078040000
21 2 0     5.006390000    10.942200000     4.766490000
22 2 0     5.994730000     3.780220000     1.976900000
23 2 0     4.730540000     3.680980000     9.012380000
24 2 0     3.710010000    10.897300000    11.656100000
25 2 0     4.658190000    13.722900000     2.340140000
26 2 0     6.279100000     6.398990000     4.467780000
27 2 0     4.933440000     0.887760000    11.310000000
28 2 0     3.345710000     8.151400000     9.301990000
29 2 0    -1.208170000     5.037130000    10.368900000
30 2 0     9.499990000    12.409100000    10.161600000
31 2 0    10.827900000     9.490090000     3.286680000
32 2 0     0.125936000     2.155780000     3.589810000
33 2 0    -1.442010000     3.603560000    12.059400000
34 2 0     9.749690000    10.892100000     8.568610000
35 2 0    11.013700000    11.231100000     1.887850000
36 2 0    -0.053941900     3.606730000     5.250820000
37 2 0     4.678180000    12.677800000     3.323530000
38 2 0     6.311320000     5.379970000     3.482540000
39 2 0     4.930440000     1.830070000    10.205200000
40 2 0     3.376970000     9.153670000    10.378500000
41 2 0     5.612240000    11.682100000     3.701110000
42 2 0     5.338200000     4.468910000     2.983560000
43 2 0     3.991830000     2.815720000     9.790430000
44 2 0     4.364720000    10.002600000    10.828100000
45 2 0    -0.486009000     4.286910000    11.308300000
46 2 0     8.817240000    11.690000000     9.184730000
47 2 0    10.091100000    10.461600000     2.596020000
48 2 0     0.875742000     2.858990000     4.544860000
49 3 0     6.884210000     7.809850000     8.068120000
50 3 0     1.665370000     0.899315000    12.581700000
51 3 0     2.896200000     6.936620000     5.581470000
52 3 0     7.922590000    13.863300000     1.213980000
53 3 0     8.727200000     6.238590000     7.126540000
54 3 0    -0.336911000    13.980000000    13.064300000
55 3 0     0.826746000     8.411740000     6.649970000
56 3 0    10.000600000     0.974104000     0.526943000
57 3 0     2.617600000    12.878400000     3.907140000
58 3 0     7.859590000     6.180900000     2.375870000
59 3 0     6.646920000     1.225400000     9.133510000
60 3 0     1.302060000     9.457570000    10.445100000
61 3 0     8.737540000     3.255220000    11.563900000
62 3 0    -0.731148000    10.341200000     9.309290000
63 3 0     0.805805000    11.416600000     2.356770000
64 3 0    10.219400000     4.102620000     4.688220000
65 3 0     6.598140000    11.438500000     3.173480000
66 3 0     4.268060000     4.428670000     3.309680000
67 3 0     2.900950000     2.796040000     9.948970000
68 3 0     5.476230000     9.993270000    10.610600000
69 3 0     0.632256000     4.284130000    11.398600000
70 3 0     7.738380000    11.766500000     8.871990000
71 3 0     9.022970000    10.567800000     2.656380000
72 3 0     1.962200000     2.790120000     4.717300000
73 4 0     3.856950000    11.521900000     5.102830000
74 4 0     7.178070000     4.298210000     1.673890000
75 4 0     6.010060000     3.285490000     8.861390000
76 4 0     2.418300000    10.568500000    11.838300000
77 4 0     3.548320000    12.395500000     4.047220000
78 4 0     7.416190000     5.265400000     2.652800000
79 4 0     6.068080000     2.040450000     9.491100000
80 4 0     2.200500000     9.489390000    10.986700000
81 4 0     9.562620000     3.907310000    11.460200000
82 4 0    -1.267010000    11.212000000     9.129500000
83 4 0     0.048351300    10.733900000     2.146720000
84 4 0    10.915600000     3.297140000     4.759170000
85 4 0     9.688880000     4.900340000    10.482300000
86 4 0    -1.366200000    12.189200000    10.115400000
87 4 0    -0.091851800     9.498530000     2.885290000
88 4 0    11.010300000     2.294830000     3.829500000
89 5 0     6.725810000     9.531380000     5.276850000
90 5 0     4.342450000     2.198480000     1.682990000
91 5 0     3.112500000     5.270970000     8.561500000
92 5 0     5.410650000    12.347800000    12.305600000
93 5 0     6.636790000     7.540570000     7.164760000
94 5 0     1.768340000     0.438347000    13.436800000
95 5 0     3.052420000     7.120460000     6.538440000
96 5 0     7.842530000    14.329400000     0.351194000
97 5 0     0.613090000     5.694820000     9.035890000
98 5 0     7.798960000    12.997100000    11.643200000
99 5 0     9.175010000     8.936960000     4.834610000
100 5 0     1.797970000     1.533100000     2.152260000
101 5 0     9.124640000     6.928140000     6.578650000
102 5 0     1.825550000    14.381600000     0.116340000
103 5 0     0.503137000     7.588720000     7.067320000
104 5 0     7.802630000     0.321249000    13.613100000
105 5 0    -0.124839000     2.373370000    13.451600000
106 5 0     8.440830000     9.418420000     7.328700000
107 5 0     9.630530000    12.434700000     0.550436000
108 5 0     1.285540000     5.021070000     6.478550000
109 5 0    -2.359460000     1.900610000    13.272000000
110 5 0    10.643800000     9.063470000     7.343190000
111 5 0    11.904300000    12.850500000     0.547036000
112 5 0    -0.949247000     5.456610000     6.317900000
113 5 0     3.482540000    14.195100000     2.092100000
114 5 0     7.414750000     7.031050000     4.598330000
115 5 0     6.058690000     0.267437000    11.521400000
116 5 0     2.183820000     7.779560000     9.005540000
117 5 0     4.690900000     9.123060000     6.199040000
118 5 0     6.387770000     1.825400000     0.796769000
119 5 0     5.020430000     5.465940000     7.506670000
120 5 0     3.300260000    12.897100000    12.842700000
121 5 0     5.749980000    13.962800000     1.748680000
122 5 0     5.172790000     6.582490000     5.074930000
123 5 0     3.852020000     0.779624000    11.943700000
124 5 0     4.433060000     7.762490000     8.773550000
125 5 0    -1.384470000     6.693220000     8.769610000
126 5 0     9.816590000    14.049700000    11.873700000
127 5 0    11.130900000     7.935350000     5.072530000
128 5 0    -0.136290000     0.630214000     1.745160000
