# Position data file
 
192 atoms
5 atom types
 
    0.000000000    12.228263000 xlo xhi
    0.000000000    12.228263000 ylo yhi
    0.000000000    12.228263000 zlo zhi
    0.000000000     0.000000000     0.000000000 xy xz yz
 
Masses
 
1    26.982000000
2    12.011000000
3     1.008000000
4    14.007000000
5    15.999000000
 
Atoms
 
1 3 0     5.148660000     4.083680000     1.144960000
2 3 0     4.068770000     3.694970000     2.192380000
3 3 0     1.931160000    10.552000000     4.220380000
4 3 0     2.430060000     9.495080000     5.144660000
5 3 0     1.649500000     0.273447000     4.772770000
6 3 0     3.040760000     0.733779000     4.230070000
7 3 0     8.702410000     2.833670000     9.213380000
8 3 0     9.015550000     2.360540000    10.616500000
9 3 0    10.886300000     3.222500000     6.961280000
10 3 0    12.301400000     3.316540000     6.436700000
11 3 0    10.330600000    11.949900000    11.917200000
12 3 0    10.598200000    10.538900000    11.325300000
13 3 0    12.114400000     1.265250000    11.039300000
14 3 0    11.606900000     0.298981000     9.981120000
15 3 0     9.263060000     9.741070000     7.150420000
16 3 0     8.792130000    10.567400000     5.999580000
17 3 0     0.733545000     9.014550000     5.506160000
18 3 0    11.384100000     8.586090000     5.475440000
19 3 0     1.267740000    12.239500000    10.244400000
20 3 0     2.817200000     0.367867000    10.533100000
21 3 0     9.886940000     5.763380000     7.799190000
22 3 0     9.211800000     6.324620000     9.063790000
23 3 0     5.497540000     6.987930000    12.037800000
24 3 0     5.706880000     8.225270000     0.742266000
25 3 0     6.024330000     9.114730000    11.065300000
26 3 0     5.269430000     9.891830000     9.955700000
27 3 0     5.919610000     2.303180000     2.395450000
28 3 0     6.897630000     1.514340000     3.294780000
29 3 0     4.107930000     7.841480000     6.046730000
30 3 0     3.366080000     6.501580000     6.410700000
31 3 0     6.489780000     8.313990000     5.161420000
32 3 0     7.287040000     8.835500000     6.395190000
33 3 0     5.803860000     4.738650000     6.263460000
34 3 0     4.762920000     5.465230000     5.499830000
35 3 0     4.669840000     5.489380000    10.966700000
36 3 0     3.635060000     5.756020000    12.158900000
37 3 0    11.564100000     9.371060000     9.659160000
38 3 0    11.468300000     8.571710000    10.882100000
39 3 0     6.415070000     6.970670000     7.035720000
40 3 0     7.675940000     6.234790000     7.476690000
41 3 0    10.695500000    11.727400000     5.449570000
42 3 0    10.454800000    10.915000000     4.050040000
43 3 0    11.617400000     5.344330000     1.292730000
44 3 0     0.902572000     5.406520000     0.899731000
45 3 0     7.019560000     4.726320000     2.147130000
46 3 0     7.544780000     5.495240000     0.890660000
47 3 0    11.589900000     6.193780000     9.833810000
48 3 0    12.090600000     6.396870000    11.319200000
49 3 0    10.531000000     2.376440000     0.737889000
50 3 0    11.822300000     3.252150000     0.977751000
51 3 0     4.365660000     2.850150000     9.080080000
52 3 0     5.200950000     1.993090000    10.104300000
53 3 0     8.235090000    11.815400000     9.396700000
54 3 0     8.290920000    11.343900000     7.773800000
55 3 0     9.520120000     9.118710000     4.069320000
56 3 0    10.275700000     7.828260000     3.697900000
57 3 0     5.153490000    10.202500000     1.523570000
58 3 0     4.089160000     8.990890000     2.131330000
59 3 0     3.047830000     8.989950000     9.333270000
60 3 0     2.987160000    10.566200000     9.498930000
61 3 0     2.522290000     2.567490000     7.677970000
62 3 0     1.961170000     3.122380000     9.054740000
63 3 0     5.899440000     4.079700000     9.763700000
64 3 0     6.324550000     5.543640000     9.196350000
65 3 0     8.652970000     3.593340000     6.876190000
66 3 0     9.585350000     4.428650000     5.929110000
67 3 0     0.774374000     9.840670000    11.649200000
68 3 0     1.037140000    10.898300000     0.488599000
69 3 0     7.797750000     1.439580000     7.997490000
70 3 0     6.644270000     2.329860000     8.095400000
71 3 0    12.185800000     6.955360000     6.418420000
72 3 0     0.774036000     5.809560000     7.060320000
73 3 0     6.001140000     8.372050000     2.837890000
74 3 0     7.405640000     8.512380000     3.265510000
75 3 0     1.974810000     4.295050000     3.905760000
76 3 0     3.485620000     4.629800000     4.165400000
77 3 0    11.519700000     9.189360000     7.447040000
78 3 0    10.631300000     8.222310000     8.212000000
79 3 0     2.150300000     8.564550000     2.733910000
80 3 0     2.212110000     9.090000000     1.205060000
81 3 0     7.074770000    11.125200000    10.855500000
82 3 0     8.591580000    11.184200000    11.320200000
83 3 0     8.892600000     6.550400000    11.889000000
84 3 0     7.945860000     7.418770000     0.429601000
85 3 0     0.149525000     3.564020000     4.462490000
86 3 0     0.513078000     4.870460000     5.328840000
87 3 0    10.224700000     5.679700000     2.995010000
88 3 0     9.941350000     6.518410000     1.697650000
89 3 0     4.740340000     9.442930000     6.534740000
90 3 0     3.536590000     9.976200000     7.379140000
91 3 0     0.294765000    12.256800000     6.642570000
92 3 0    12.296400000     1.362370000     6.205760000
93 3 0     3.141660000     7.061170000    10.242700000
94 3 0     1.637580000     7.518970000     9.971990000
95 3 0     3.036370000    11.972700000     6.824980000
96 3 0     2.502590000     0.094309000     8.285280000
97 3 0     5.047010000     1.553650000     4.597190000
98 3 0     4.812360000     2.801910000     5.566820000
99 3 0     4.674660000     0.765804000    12.201000000
100 3 0     4.104340000     2.144390000    12.225000000
101 3 0    12.252800000     3.009460000     9.025430000
102 3 0     0.550374000     3.862450000    10.191200000
103 3 0     0.307330000     0.850031000     1.504660000
104 3 0     1.439740000     0.368926000     2.436480000
105 3 0     9.449040000     1.637960000     3.873640000
106 3 0     8.735600000     0.324141000     4.141370000
107 3 0     2.506760000     5.401780000     2.141830000
108 3 0     2.419520000     6.911250000     1.478970000
109 3 0     9.830910000     3.921590000     4.069870000
110 3 0     8.591080000     4.925050000     4.242420000
111 3 0    11.684300000     1.501320000     4.146180000
112 3 0    11.484700000     2.290220000     2.762050000
113 3 0    11.923500000    10.963500000     2.504690000
114 3 0    11.918500000     9.701610000     3.216850000
115 3 0     6.788290000     6.323700000     3.495570000
116 3 0     6.353110000     5.124550000     4.447540000
117 3 0     2.480410000     6.486120000     8.367120000
118 3 0     2.870990000     4.972920000     7.954340000
119 3 0     5.925410000     0.287648000     1.785250000
120 3 0     6.509180000    12.037400000     0.298464000
121 3 0     7.790520000     5.207050000    10.450500000
122 3 0     9.226960000     4.653160000    10.611500000
123 3 0     8.805200000     9.926130000     1.588620000
124 3 0     7.332690000    10.426500000     1.742030000
125 3 0     9.962990000     0.235337000     8.626110000
126 3 0    11.081000000     1.228060000     8.223550000
127 3 0     8.888870000     1.729030000     1.523890000
128 3 0     8.228550000     3.069590000     1.082570000
129 5 0     4.799440000     3.346760000     1.659040000
130 5 0     1.807530000     9.609100000     4.383600000
131 5 0     2.371660000    12.288000000     4.062460000
132 5 0     9.391490000     2.993760000     9.967800000
133 5 0    11.764100000     2.812160000     7.126530000
134 5 0     9.982650000    11.043200000    12.025100000
135 5 0    12.038400000     0.340103000    10.908600000
136 5 0     8.384890000    10.174300000     6.865720000
137 5 0    12.228600000     8.562180000     6.016450000
138 5 0     2.190300000    12.185700000     9.917710000
139 5 0     9.383780000     6.521400000     8.124340000
140 5 0     6.190100000     7.634230000     0.161352000
141 5 0     6.096050000     9.873950000    10.469200000
142 5 0     6.004690000     1.468520000     2.956420000
143 5 0     3.924650000     6.978350000     5.683100000
144 5 0     6.419530000     8.398950000     6.172890000
145 5 0     5.096070000     4.531170000     5.625660000
146 5 0     4.182420000     6.229290000    11.454600000
147 5 0    11.643900000     9.499240000    10.641400000
148 5 0     6.669550000     6.091200000     7.479770000
149 5 0    10.001600000    11.309100000     4.852090000
150 5 0    12.259900000     4.952740000     0.595830000
151 5 0     7.099790000     4.633430000     1.169820000
152 5 0    11.974300000     6.848070000    10.472700000
153 5 0    11.404000000     2.363930000     1.125360000
154 5 0     5.316100000     2.554680000     9.327150000
155 5 0     8.436130000    12.089000000     8.486780000
156 5 0    10.059400000     8.390330000     4.450650000
157 5 0     5.075840000     9.240430000     1.882490000
158 5 0     3.540570000     9.861070000     9.156190000
159 5 0     2.772230000     3.090280000     8.467850000
160 5 0     6.112350000     5.039810000    10.045900000
161 5 0     9.487670000     4.116370000     6.861430000
162 5 0     1.497530000    10.125000000    12.272000000
163 5 0     7.578480000     2.391180000     7.853380000
164 5 0    12.176900000     5.962710000     6.593640000
165 5 0     6.617150000     7.918180000     3.433130000
166 5 0     2.922690000     4.337380000     3.452640000
167 5 0    10.804800000     9.161820000     8.104220000
168 5 0     2.591860000     8.448430000     1.865660000
169 5 0     7.823350000    11.809800000    11.134000000
170 5 0     8.848030000     7.078280000     0.485261000
171 5 0     0.877508000     4.044550000     4.881110000
172 5 0    10.624700000     6.236930000     2.303140000
173 5 0     3.829200000     9.784490000     6.456720000
174 5 0    12.310400000     0.516982000     5.793170000
175 5 0     2.545440000     7.507640000     9.560080000
176 5 0     2.476340000     0.350674000     7.316230000
177 5 0     4.538530000     1.861100000     5.369790000
178 5 0     4.210860000     1.388400000    11.642900000
179 5 0     0.524635000     2.971050000     9.846260000
180 5 0     0.633153000    12.307600000     2.016600000
181 5 0     8.551890000     1.256580000     3.802380000
182 5 0     2.382890000     5.883350000     1.291320000
183 5 0     9.554040000     4.796760000     4.356480000
184 5 0    11.217100000     2.209030000     3.736160000
185 5 0    11.357600000    10.252100000     2.735300000
186 5 0     7.015090000     5.419470000     3.771480000
187 5 0     2.608650000     5.858320000     7.630960000
188 5 0     5.834130000    11.817400000     0.995189000
189 5 0     8.727850000     5.492370000    10.613600000
190 5 0     8.111950000    10.098800000     2.245270000
191 5 0    10.960600000     0.291298000     8.507550000
192 5 0     8.648090000     2.257830000     0.732145000
