ITEM: TIMESTEP
0
ITEM: NUMBER OF ATOMS
128
ITEM: BOX BOUNDS xy xz yz pp pp pp
-2.8097637880000002e+00 1.2239000320000001e+01 0.0000000000000000e+00
0.0000000000000000e+00 1.5074000358999999e+01 -2.8097637880000002e+00
0.0000000000000000e+00 1.3358706116000000e+01 0.0000000000000000e+00
ITEM: ATOMS id type x y z vx vy vz
2 1 0 0 0 0.000298722 -0.00116261 0.00148114
27 2 -0.68104 3.01873 3.70681 -0.0074907 -0.00145966 -0.00294034
67 3 0.375388 2.99119 3.46664 0.0164458 0.0153605 0.0124928
84 5 1.77301 0.39013 0.355395 -0.00364497 -0.00216824 0.00453998
111 5 3.68787 2.284 0.415242 0.000154119 0.00510493 -0.000142911
6 1 0.266307 0.991221 12.5178 -6.25467e-05 -0.00128671 -0.00431933
10 2 -2.20447 2.42524 11.8818 -0.00048626 -9.82563e-05 0.00137047
74 3 1.56737 3.26382 8.9395 0.0229711 0.00997485 -0.0129302
90 5 1.51254 1.68003 11.2348 0.00394448 0.00213352 0.00217923
94 5 -0.9426 2.27384 11.8239 0.00124986 0.00469529 0.00416908
75 3 2.97225 4.27318 2.26015 -0.0121278 0.0053102 0.0137142
1 1 -1.40488 7.537 6.67935 -0.00435454 -0.00108177 -0.00549082
3 1 1.67119 6.54578 5.83844 -0.00190052 0.00226774 -0.00495801
11 2 -0.799593 5.11176 5.20241 0.00514849 -0.000458433 -0.00619532
81 5 0.368126 7.14687 7.03475 0.00324321 0.00241322 -0.00325744
91 5 2.91742 5.85697 4.55549 0.00447949 0.00412597 -0.00147669
95 5 0.462282 5.26316 5.14453 -0.0019303 0.00454103 0.00340123
110 5 2.28298 5.253 7.0946 -0.00164612 0.00609799 0.00623655
26 2 -2.08592 4.51827 10.3862 -0.00551757 0.00281822 0.00570985
66 3 -1.02949 4.54581 10.146 0.0249481 -0.0247503 0.0133065
13 2 0.160423 8.55258 4.37805 0.000114652 0.00714932 -0.004348
41 2 0.287665 9.66056 3.42332 -0.00220285 -0.00668438 -0.00722775
49 2 1.471 10.094 2.86384 0.00304789 -0.00598703 -0.000916584
77 3 2.49212 9.7371 2.93651 0.0215132 0.0185909 0.011134
121 5 1.26214 11.1976 2.10969 0.00537553 0.00316899 -0.00162798
40 2 -1.49903 11.1384 8.85279 0.00728923 0.00253138 0.00259067
57 3 0.749809 7.64529 7.77271 -0.022176 -0.0143917 -0.0223155
61 3 2.72938 8.69501 6.16129 -0.0234959 -0.0233586 -0.0205992
97 5 1.2009 7.82454 4.51192 0.00236337 0.00271248 0.00614205
104 5 -1.165 9.19588 7.58827 -0.00464436 -0.0058042 -0.00305135
105 5 -0.938175 8.42408 5.00422 0.00237154 0.00364405 0.002163
37 2 -0.0941465 11.4726 2.17343 -0.00489364 0.00328334 -0.00208176
60 3 2.15469 14.9657 1.09336 0.00240717 -0.00430854 -0.0149552
101 5 0.239884 13.4151 0.908913 -0.000494251 -0.00582777 -0.00358007
124 5 -0.142745 11.4134 8.78904 -0.00688949 -0.00629492 0.00263952
16 2 -1.24446 14.0584 11.0574 -0.00516494 -0.00629912 -0.00313543
44 2 -1.11722 12.9504 10.1027 0.00517291 0.000524592 -0.000566003
52 2 0.0661209 12.517 9.54319 -0.00169709 0.00720987 0.00557097
64 3 1.3245 13.916 12.8406 0.00776207 -0.00621686 -0.0223119
80 3 1.08723 12.8739 9.61586 0.000506016 0.000132679 0.00758912
100 5 -0.20398 14.7865 11.1913 -0.00416427 0.000687335 0.00602386
108 5 -2.34306 14.1869 11.6836 0.00424408 0.00367263 0.00509759
8 1 6.1195 0 0 -0.00063907 0.00492616 -0.0014066
23 2 4.87026 2.51416 0.823163 0.00378144 -0.00509984 -3.6131e-05
55 2 5.00528 3.66128 1.71207 0.00389983 0.000851664 0.00168443
87 5 7.94979 0.268498 0.159971 -0.00119509 0.00175401 -0.00541604
115 5 5.91157 1.82659 0.55472 0.00277059 -0.00134141 -1.4351e-05
126 5 4.86072 3.47533 8.80411 0.00370905 0.00133308 0.000168006
18 2 2.72556 1.41739 10.9508 -0.00277232 -0.00522116 -0.00789285
30 2 4.6754 2.48383 9.71071 0.00643266 -0.00329507 -0.00690065
34 2 3.33075 2.25447 9.90503 -0.00749815 -0.000709563 -0.00740324
46 2 2.64002 3.15077 9.04159 -0.0060697 -0.00331195 -0.00723951
70 3 5.56731 2.06098 10.1591 0.0199458 -0.0201054 -0.0194196
118 5 3.47443 0.559652 11.5248 -0.00189329 -0.00085492 0.0049222
19 2 4.13044 6.11961 4.27149 -0.00110452 0.000302017 0.00582817
31 2 6.08029 5.05317 3.03136 0.00128494 -0.00458838 -0.000467797
35 2 4.73563 5.28253 3.22567 -0.00667927 0.00134056 -0.000116113
47 2 4.04491 4.38623 2.36223 0.00563028 0.0042216 0.00703724
71 3 6.97219 5.47602 3.47976 -0.000796464 0.0119354 0.00274098
127 5 6.2656 4.06167 2.12476 0.00639917 0.00504394 -0.00211887
7 1 4.71462 7.537 6.67935 0.00373918 0.0047702 0.00353503
22 2 3.46538 5.02284 7.50252 -0.00342362 0.00671168 -0.00716749
54 2 3.6004 3.87572 8.39142 0.00103141 0.00110707 -0.00405173
86 5 6.54491 7.2685 6.83932 0.00413759 0.000946044 0.00239318
114 5 4.50669 5.71041 7.23407 0.0028508 -0.00375312 -0.00367469
119 5 4.87931 6.97735 4.8454 -0.0040264 -0.00129037 -0.00167891
21 2 5.96386 10.0512 5.85619 0.0045779 -0.00190325 0.00463935
53 2 5.82884 11.1983 4.96729 0.00432418 0.000506833 0.000102753
85 5 2.88433 7.8055 6.51938 -0.00269829 0.00227263 -0.00615997
113 5 4.92255 9.36359 6.12463 -0.00388056 -0.00563975 0.00508819
120 5 4.54993 8.09665 8.5133 0.000612739 0.00546598 -0.00264777
20 2 5.2988 8.95439 9.08722 -0.00265719 -0.00670375 -0.00207413
32 2 3.34895 10.0208 10.3273 0.000246201 -0.00188548 0.0042354
36 2 4.69361 9.79147 10.133 0.00678585 -0.00287692 -0.00125781
48 2 5.38433 10.6878 10.9965 0.00754743 -0.00334507 0.00289262
72 3 2.45704 9.59798 9.87895 -0.000548215 -0.000596374 -0.0171172
128 5 3.16364 11.0123 11.234 -1.87355e-05 0.00565766 -0.000641821
17 2 6.70368 13.6566 2.40787 0.00581853 0.00354956 0.000800433
29 2 4.75383 12.5902 3.648 0.00664902 -0.00381457 1.87635e-05
33 2 6.09849 12.8195 3.45368 -0.00669805 0.000577487 0.006745
45 2 6.78921 11.9232 4.31712 0.00287858 -0.00181267 -0.000202125
69 3 3.86193 13.013 3.1996 -0.0197222 -0.0229711 0.0251421
117 5 5.95481 14.5143 1.83395 0.000127901 0.000998527 -0.00224155
125 5 4.56852 11.5987 4.5546 0.00562727 0.00513485 -0.00211053
24 2 4.55898 12.5598 12.5355 -0.00299429 -0.00429391 0.00502868
56 2 4.42396 11.4127 11.6466 0.00743027 -0.0044362 0.00675068
88 5 1.47944 14.8055 13.1987 -0.00224402 -0.00235073 -0.00678497
116 5 3.51767 13.2474 12.804 -0.0027014 0.00443536 0.000909507
15 2 10.6737 1.01558 2.3013 0.00640916 -0.0046012 0.0045643
43 2 10.5465 2.12356 3.25604 0.00140799 0.0010631 -0.00306053
51 2 9.36312 2.55696 3.81551 -0.00759296 -0.00405641 -0.00255788
63 3 8.10474 1.15801 0.518064 0.0119955 0.00243234 0.0160158
79 3 8.342 2.2001 3.74284 0.0239731 0.00268628 -0.00970548
99 5 9.63322 0.287537 2.16744 0.00104457 0.00574595 -0.00370595
107 5 11.7723 0.887075 1.67513 -0.00471277 0.00405219 -6.26384e-05
123 5 9.57198 3.66057 4.56967 0.000438592 -0.00205783 0.00480839
38 2 9.52338 3.60143 11.1853 0.00227959 0.00759392 0.0050056
59 3 7.27455 0.108292 12.2653 -0.0200927 -0.000467551 -0.0259483
102 5 9.18935 1.65888 12.4498 -0.00293712 -0.00101785 -0.00499333
39 2 10.9283 3.93557 4.50592 -0.0038544 -0.00671981 -0.00437472
58 3 8.67943 7.42871 5.586 0.0247151 0.0264442 -0.0119444
62 3 6.69986 6.37899 7.19742 0.0107824 -0.00612396 0.0172287
98 5 8.22833 7.24946 8.84679 -0.00579057 0.00580648 0.00414816
103 5 10.5942 5.87812 5.77044 -0.00510535 -0.00509678 0.00443597
106 5 10.3674 6.64993 8.35448 0.00452235 0.00134236 0.00608448
14 2 9.26881 6.52142 8.98066 -0.000276274 0.00234934 -0.00238129
42 2 9.14157 5.41344 9.93539 -0.00134847 -0.00629732 -0.00447811
50 2 7.95823 4.98004 10.4949 -0.000858144 0.000247383 0.000773916
78 3 6.93712 5.3369 10.4222 0.0249271 0.00360046 -0.0257982
122 5 8.1671 3.87643 11.249 -0.00298162 0.0013382 0.00430072
25 2 11.5152 10.5557 2.97254 0.00617667 -0.00737102 -0.00687389
65 3 10.4587 10.5282 3.21272 -0.0237367 0.00566655 0.0245247
4 1 7.75805 8.52822 7.52027 -0.00536924 0.00440928 -0.00115087
12 2 10.2288 9.96224 8.15629 0.000180976 0.00399211 0.00732439
82 5 9.06111 7.92713 6.32396 0.00360649 -0.00346134 0.00287504
92 5 6.51181 9.21703 8.80321 0.00242702 -0.00518122 0.00398269
96 5 8.96695 9.81084 8.21418 -0.00209156 -0.00461382 0.00453703
109 5 7.14625 9.821 6.26411 -0.00284391 -0.00328678 0.00369914
76 3 6.45699 10.8008 11.0986 0.0200247 0.000392779 -0.0231694
5 1 9.16293 14.0828 0.840917 -0.00286212 -0.00323395 0.000921857
9 2 11.6337 12.6488 1.47694 -0.00666366 -0.00395801 -0.00181026
73 3 7.86187 11.8102 4.41919 -5.93862e-05 0.00847155 -0.0067356
89 5 7.9167 13.394 2.12386 0.00408324 0.00146379 0.000577758
93 5 10.3718 12.8002 1.53482 0.0030326 -0.0039503 -0.0026334
28 2 10.1103 12.0553 9.65189 -0.005787 -0.00681911 -0.00445532
68 3 9.05385 12.0828 9.89207 -0.0181859 -0.0188069 0.0107433
83 5 7.65623 14.6839 13.0033 -0.00578639 -0.00574767 0.00565517
112 5 5.74137 12.79 12.9435 0.00564493 0.00187925 -0.00134557
ITEM: TIMESTEP
5
ITEM: NUMBER OF ATOMS
128
ITEM: BOX BOUNDS xy xz yz pp pp pp
-2.8097637880000002e+00 1.2239000320000001e+01 0.0000000000000000e+00
0.0000000000000000e+00 1.5074000358999999e+01 -2.8097637880000002e+00
0.0000000000000000e+00 1.3358706116000000e+01 0.0000000000000000e+00
ITEM: ATOMS id type x y z vx vy vz
111 5 3.68793 2.28656 0.415169 9.7094e-05 0.00512994 -0.000151544
27 2 -0.684738 3.018 3.70534 -0.00726817 -0.00146391 -0.00297599
67 3 0.383738 2.99879 3.47281 0.0166804 0.0150033 0.0122463
84 5 1.77118 0.389051 0.357655 -0.003652 -0.00214032 0.00449027
6 1 0.266277 0.990579 12.5156 -5.76739e-05 -0.00128078 -0.00429135
10 2 -2.2047 2.4252 11.8824 -0.000423802 -6.70104e-05 0.0012906
74 3 1.57842 3.26874 8.93303 0.0208596 0.00973192 -0.0129574
90 5 1.51452 1.68109 11.2359 0.00395686 0.00211464 0.00220686
94 5 -0.941966 2.27618 11.826 0.00128284 0.0046713 0.00415972
75 3 2.96602 4.27591 2.26701 -0.0125522 0.00562485 0.0137559
110 5 2.28214 5.25605 7.09771 -0.00172865 0.00607511 0.00621593
3 1 1.67024 6.54691 5.83596 -0.00189144 0.00226263 -0.00493103
11 2 -0.797013 5.11153 5.1993 0.00514563 -0.000473135 -0.00625113
81 5 0.369739 7.14807 7.0331 0.00318887 0.00234959 -0.00336432
91 5 2.91966 5.85904 4.55476 0.00446947 0.00413812 -0.00143583
95 5 0.461329 5.26544 5.14623 -0.00187541 0.00455949 0.00338477
26 2 -2.08863 4.51968 10.389 -0.00526753 0.00282202 0.00566255
66 3 -1.01694 4.53352 10.1526 0.0248899 -0.0243549 0.0131181
13 2 0.160472 8.55617 4.37587 8.44823e-05 0.00718815 -0.00433773
41 2 0.286593 9.65721 3.41971 -0.00207831 -0.00672232 -0.00719197
49 2 1.47258 10.0909 2.86344 0.00327875 -0.00636835 -0.000690032
77 3 2.50308 9.74603 2.94226 0.022185 0.0171801 0.0118608
121 5 1.26486 11.1992 2.10882 0.00549046 0.00342576 -0.00184698
40 2 -1.49546 11.1396 8.85406 0.00697425 0.0022954 0.00249799
57 3 0.738805 7.63836 7.76183 -0.0215605 -0.0129716 -0.0206875
61 3 2.71761 8.6835 6.15098 -0.0235845 -0.0224275 -0.0207342
97 5 1.20207 7.8259 4.51497 0.00230541 0.00275258 0.00608716
104 5 -1.16732 9.19299 7.58675 -0.00463063 -0.00574825 -0.00300971
105 5 -0.936983 8.4259 5.00529 0.00239645 0.00364682 0.00211617
37 2 -0.0966544 11.4743 2.17238 -0.00512118 0.00345503 -0.0021507
60 3 2.15589 14.9634 1.086 0.00247581 -0.00509313 -0.014301
101 5 0.239642 13.4122 0.907129 -0.000477277 -0.00585941 -0.00355372
2 1 0.000148615 15.0734 0.000740495 0.00029408 -0.00116407 0.00148067
124 5 -0.146151 11.4102 8.7903 -0.00672379 -0.00653622 0.00242115
16 2 -1.24705 14.0553 11.0558 -0.00516728 -0.00634012 -0.00313188
44 2 -1.11462 12.9507 10.1024 0.00520437 0.000560612 -0.000514793
52 2 0.0653268 12.5207 9.54603 -0.00147085 0.00757351 0.00578445
64 3 1.32837 13.9129 12.8295 0.00774612 -0.00600512 -0.0220358
80 3 1.08776 12.8743 9.61984 0.00159298 0.00160141 0.00829631
100 5 -0.206074 14.7868 11.1943 -0.0042171 0.000649592 0.00596776
108 5 -2.34093 14.1888 11.6861 0.00425176 0.00366336 0.00505264
115 5 5.91297 1.82592 0.554705 0.00281667 -0.00133781 -4.81983e-05
23 2 4.87214 2.51161 0.823158 0.00371176 -0.00508124 1.76904e-05
55 2 5.00718 3.66164 1.71286 0.0036905 0.000595004 0.00149661
87 5 7.94918 0.269376 0.157275 -0.00123361 0.00176709 -0.0053596
126 5 4.86263 3.47604 8.80414 0.00392504 0.00153901 -4.37734e-05
18 2 2.72418 1.41482 10.9469 -0.00271853 -0.00507539 -0.00792631
30 2 4.67863 2.48209 9.70735 0.0064843 -0.00368423 -0.00654381
34 2 3.32704 2.25409 9.90135 -0.00732388 -0.000806292 -0.00729315
46 2 2.63697 3.14912 9.03796 -0.00610695 -0.00328762 -0.00728201
70 3 5.57734 2.05062 10.1496 0.0200258 -0.0212507 -0.0185449
118 5 3.47346 0.559233 11.5272 -0.00196414 -0.000819227 0.00485257
8 1 3.30942 0.00246264 13.358 -0.000639273 0.00492342 -0.0014064
19 2 4.1299 6.11972 4.27438 -0.00104875 0.000143407 0.00574889
31 2 6.08094 5.05097 3.03121 0.00135112 -0.00418095 -9.97763e-05
35 2 4.73233 5.28323 3.22565 -0.00649777 0.00143441 7.50928e-06
47 2 4.04767 4.38833 2.36574 0.00540117 0.0041766 0.00696972
71 3 6.9719 5.4823 3.48137 -0.000452249 0.0131376 0.00368525
127 5 6.26886 4.06414 2.12364 0.00662181 0.00483505 -0.0023317
119 5 4.87728 6.9767 4.84455 -0.00407786 -0.0013011 -0.00171798
22 2 3.46366 5.02619 7.49895 -0.00344346 0.0066888 -0.00709324
54 2 3.60086 3.87634 8.38935 0.000815859 0.00134654 -0.00422658
86 5 6.54697 7.26897 6.84053 0.00409 0.000921823 0.00244555
114 5 4.50813 5.70853 7.23223 0.00289392 -0.00374837 -0.00371343
21 2 5.96615 10.0502 5.8585 0.00456577 -0.00191594 0.00458455
53 2 5.83105 11.1985 4.96739 0.00453308 0.000238347 0.000300616
85 5 2.88299 7.80662 6.5163 -0.00263913 0.00220546 -0.00617861
113 5 4.9206 9.36078 6.12718 -0.0038981 -0.00561051 0.00511232
120 5 4.55025 8.09939 8.51199 0.00066023 0.00546688 -0.00260881
7 1 4.71649 7.53938 6.68112 0.00373657 0.00476737 0.00353095
20 2 5.29746 8.95109 9.0862 -0.00265191 -0.00651367 -0.00200138
32 2 3.34906 10.0198 10.3294 0.000181765 -0.00226169 0.00388128
36 2 4.69696 9.79001 10.1324 0.00662713 -0.00295231 -0.00134884
48 2 5.38815 10.6861 10.9979 0.00772003 -0.00333438 0.00292192
72 3 2.45668 9.59737 9.87016 -0.000799201 -0.00174926 -0.0179704
128 5 3.16357 11.0152 11.2337 -0.000228792 0.00584712 -0.000440244
17 2 6.70657 13.6583 2.40828 0.00574346 0.00340131 0.000855584
29 2 4.75713 12.5884 3.64792 0.0065092 -0.00343101 -0.000327973
33 2 6.09512 12.8198 3.45702 -0.00674622 0.000696759 0.00659215
45 2 6.79069 11.9223 4.31703 0.00301887 -0.00182056 -0.000164383
69 3 3.85197 13.0019 3.21189 -0.0199919 -0.021569 0.0240149
117 5 5.95489 14.5148 1.83284 0.000206755 0.000964686 -0.0021825
125 5 4.57127 11.6012 4.5536 0.00539383 0.00490834 -0.0018812
24 2 4.5575 12.5577 12.538 -0.00291852 -0.00425882 0.00499973
56 2 4.42772 11.4106 11.6501 0.0076164 -0.00419277 0.00692565
88 5 1.47833 14.8043 13.1953 -0.00219606 -0.00235421 -0.00682941
116 5 3.51631 13.2496 12.8044 -0.00272949 0.0044108 0.00093696
15 2 10.6769 1.0133 2.30359 0.00641387 -0.00450587 0.00458894
43 2 10.5471 2.12408 3.2545 0.00127402 0.00100577 -0.00310203
51 2 9.35929 2.55483 3.81417 -0.00765925 -0.00441748 -0.00279758
63 3 8.11073 1.15919 0.526004 0.0119215 0.00208654 0.0156582
79 3 8.3535 2.201 3.7378 0.0215752 0.000785848 -0.0104985
99 5 9.63375 0.290415 2.1656 0.00108379 0.00576289 -0.00365881
107 5 11.7699 0.8891 1.6751 -0.00470532 0.00404413 -3.79654e-05
123 5 9.57217 3.65961 4.57213 0.000292969 -0.00180017 0.00503362
38 2 9.52459 3.60518 11.1878 0.00252741 0.00735928 0.0051099
59 3 7.26465 0.108028 12.2526 -0.0192214 -0.000893842 -0.024763
102 5 9.18788 1.65838 12.4473 -0.00295874 -0.000987725 -0.00501669
39 2 10.9264 3.93226 4.50375 -0.00357406 -0.00647361 -0.00426988
58 3 8.69177 7.44176 5.5799 0.02455 0.0256671 -0.0126091
62 3 6.70524 6.37598 7.20596 0.0107098 -0.00566335 0.0168361
98 5 8.22545 7.25236 8.84888 -0.00571955 0.00576424 0.00419294
103 5 10.5917 5.87556 5.77265 -0.00510822 -0.00514317 0.00439714
106 5 10.3697 6.6506 8.35753 0.00449144 0.00134784 0.00612124
1 1 10.8319 7.53646 6.67661 -0.0043488 -0.00108294 -0.00548774
14 2 9.26868 6.52257 8.97947 -0.000253782 0.00227172 -0.00235426
42 2 9.14087 5.4103 9.93314 -0.00145607 -0.00622558 -0.00453505
50 2 7.95777 4.98026 10.4952 -0.000991321 0.000629427 0.000524058
78 3 6.94916 5.33911 10.4091 0.0229347 0.00530471 -0.0265108
122 5 8.16558 3.87703 11.2512 -0.00311271 0.00107258 0.00453159
25 2 11.5182 10.552 2.96911 0.00590712 -0.00736455 -0.00682705
65 3 10.4468 10.531 3.22501 -0.0234277 0.00540549 0.0245273
4 1 7.75536 8.53043 7.51969 -0.00537092 0.00440985 -0.00117254
12 2 10.2289 9.96424 8.15997 0.000117418 0.00396629 0.00736927
82 5 9.06292 7.9254 6.3254 0.00361501 -0.00343442 0.00292283
92 5 6.51302 9.21443 8.8052 0.00239152 -0.00520298 0.0039535
96 5 8.9659 9.80853 8.21645 -0.00211146 -0.00462235 0.00455207
109 5 7.14485 9.81936 6.26596 -0.00275857 -0.00325567 0.00371113
76 3 6.4672 10.8009 11.087 0.020683 0.00010531 -0.0231647
5 1 9.1615 14.0812 0.841372 -0.00286917 -0.00323608 0.000896178
9 2 11.6304 12.6468 1.47605 -0.00667208 -0.00396873 -0.00174598
73 3 7.86214 11.8145 4.41583 0.00115789 0.00871411 -0.00672546
89 5 7.91873 13.3947 2.12414 0.0040562 0.00148266 0.000552589
93 5 10.3733 12.7982 1.53351 0.00295862 -0.00392292 -0.00262093
28 2 10.1073 12.0519 9.64967 -0.00593155 -0.00677821 -0.00440316
68 3 9.0446 12.0735 9.8975 -0.0185897 -0.0185274 0.0109344
83 5 7.65333 14.681 13.0061 -0.00582064 -0.0056922 0.00558637
112 5 5.7442 12.7909 12.9428 0.00568173 0.00184021 -0.00134446
ITEM: TIMESTEP
10
ITEM: NUMBER OF ATOMS
128
ITEM: BOX BOUNDS xy xz yz pp pp pp
-2.8097637880000002e+00 1.2239000320000001e+01 0.0000000000000000e+00
0.0000000000000000e+00 1.5074000358999999e+01 -2.8097637880000002e+00
0.0000000000000000e+00 1.3358706116000000e+01 0.0000000000000000e+00
ITEM: ATOMS id type x y z vx vy vz
111 5 3.68797 2.28913 0.41509 5.58032e-05 0.00513991 -0.000163019
27 2 -0.68828 3.01727 3.70383 -0.00687229 -0.00146167 -0.00304003
67 3 0.391833 3.00617 3.47891 0.0154451 0.0144719 0.0121479
84 5 1.76935 0.387997 0.359876 -0.00367415 -0.00206563 0.00438035
6 1 0.266248 0.98994 12.5135 -5.81309e-05 -0.0012734 -0.00425643
10 2 -2.2049 2.42518 11.8831 -0.000358898 -1.45758e-05 0.00120308
74 3 1.5879 3.27357 8.92652 0.0167243 0.00960093 -0.0130944
90 5 1.51649 1.68214 11.2371 0.00394275 0.00209781 0.00223266
94 5 -0.941318 2.27851 11.828 0.0013079 0.00464076 0.00415336
75 3 2.95989 4.27881 2.27391 -0.0117326 0.00597484 0.013819
110 5 2.28125 5.25908 7.10081 -0.00184639 0.00607145 0.00616869
3 1 1.6693 6.54804 5.83351 -0.00187929 0.00225785 -0.00489884
11 2 -0.794467 5.11129 5.19617 0.00501581 -0.000477366 -0.00626731
81 5 0.371297 7.1492 7.03135 0.00302556 0.00216486 -0.00365157
91 5 2.92188 5.86111 4.55406 0.00438685 0.00413463 -0.00137038
95 5 0.460412 5.26772 5.14791 -0.00178451 0.00457347 0.00335723
26 2 -2.09115 4.52109 10.3918 -0.00479472 0.00281819 0.0055642
66 3 -1.00493 4.52149 10.1591 0.0228305 -0.0236949 0.0131843
13 2 0.160509 8.55976 4.37372 6.74017e-05 0.00714782 -0.00427228
41 2 0.285595 9.65385 3.41612 -0.00190519 -0.00674338 -0.00717933
49 2 1.47429 10.0876 2.86314 0.00356654 -0.00669964 -0.000503119
77 3 2.51415 9.7543 2.94837 0.0219035 0.0159424 0.0125746
121 5 1.26762 11.201 2.10784 0.00556593 0.0036532 -0.00203778
40 2 -1.49207 11.1407 8.85528 0.00657829 0.00200209 0.00238097
57 3 0.728495 7.63263 7.7525 -0.0194178 -0.00961346 -0.0161177
61 3 2.70579 8.67281 6.14048 -0.0237088 -0.0200823 -0.021362
97 5 1.2032 7.82729 4.518 0.00222414 0.00282007 0.00601288
104 5 -1.16963 9.19014 7.58526 -0.00463667 -0.00564507 -0.00293367
105 5 -0.935778 8.42772 5.00634 0.00242556 0.0036569 0.00205574
37 2 -0.0992527 11.476 2.17129 -0.00525535 0.00355522 -0.00219595
60 3 2.15724 14.9605 1.0792 0.00298348 -0.00650485 -0.0127402
101 5 0.239405 13.4093 0.90536 -0.000474375 -0.00589022 -0.00352327
2 1 0.000292649 15.0728 0.00148052 0.000280494 -0.00116842 0.00147925
124 5 -0.149459 11.4069 8.79147 -0.0064954 -0.00671792 0.00223181
16 2 -1.24962 14.0521 11.0543 -0.00510179 -0.00630651 -0.0030868
44 2 -1.11203 12.951 10.1022 0.00509965 0.000577895 -0.000454857
52 2 0.0646583 12.5246 9.54897 -0.00119349 0.00785372 0.00593147
64 3 1.33226 13.9101 12.8187 0.00783048 -0.00506166 -0.0214548
80 3 1.0888 12.8755 9.62415 0.00253645 0.00299222 0.00895807
100 5 -0.208199 14.7871 11.1972 -0.00428277 0.000589244 0.00588994
108 5 -2.33881 14.1906 11.6886 0.00422933 0.00363394 0.00499804
115 5 5.91439 1.82525 0.554672 0.0028667 -0.00134215 -8.47088e-05
23 2 4.87397 2.50909 0.823185 0.00360378 -0.00500546 9.49405e-05
55 2 5.00897 3.66187 1.71356 0.00347948 0.000324212 0.00129943
87 5 7.94856 0.270275 0.154617 -0.00124902 0.00183814 -0.00526795
126 5 4.86464 3.47687 8.80406 0.00411431 0.00174929 -0.000259187
18 2 2.72284 1.41232 10.9429 -0.00263305 -0.00493493 -0.00792965
30 2 4.68188 2.48014 9.70417 0.00650633 -0.00410623 -0.00615683
34 2 3.32344 2.25366 9.89773 -0.00705171 -0.000914564 -0.00719133
46 2 2.63395 3.14748 9.0343 -0.00591844 -0.00324924 -0.0073282
70 3 5.58719 2.03979 10.1405 0.019174 -0.0219873 -0.0180592
118 5 3.47246 0.558836 11.5296 -0.00203917 -0.000765389 0.00474928
8 1 3.3091 0.00492253 13.3573 -0.000639934 0.00491508 -0.00140578
19 2 4.1294 6.11975 4.27723 -0.000956204 -3.5502e-05 0.00560808
31 2 6.08164 5.049 3.03127 0.00141684 -0.00370332 0.00032253
35 2 4.72915 5.28397 3.22568 -0.00620243 0.00153402 0.000149996
47 2 4.05028 4.3904 2.36919 0.00502485 0.00407459 0.00684776
71 3 6.97167 5.48911 3.4834 -0.000526138 0.0140414 0.00436156
127 5 6.27222 4.06651 2.12242 0.00683042 0.00461562 -0.00255043
119 5 4.87524 6.97605 4.84369 -0.00409441 -0.00127988 -0.00172947
22 2 3.46195 5.02952 7.49543 -0.0034019 0.00660063 -0.0069553
54 2 3.60121 3.87707 8.38719 0.000587376 0.00156669 -0.00438583
86 5 6.549 7.26941 6.84177 0.00404675 0.000819199 0.00252379
114 5 4.50958 5.70666 7.23036 0.00293491 -0.00371915 -0.00376452
21 2 5.9684 10.0492 5.86077 0.00443006 -0.00193253 0.00450359
53 2 5.83337 11.1985 4.96759 0.00474243 -6.77917e-05 0.00052783
85 5 2.88169 7.80769 6.51321 -0.00256156 0.00204646 -0.00615846
113 5 4.91866 9.35799 6.12974 -0.00386405 -0.0055389 0.00512009
120 5 4.55058 8.10211 8.51069 0.000664701 0.00541619 -0.00259804
7 1 4.71835 7.54177 6.68288 0.00372847 0.00475877 0.00351867
20 2 5.29616 8.94789 9.08523 -0.00256058 -0.00624023 -0.00187936
32 2 3.34913 10.0186 10.3312 0.000122297 -0.00264509 0.00350009
36 2 4.70022 9.78852 10.1317 0.00639989 -0.00299647 -0.00139346
48 2 5.39206 10.6844 10.9994 0.00793197 -0.00333464 0.00292911
72 3 2.45634 9.59629 9.86105 -0.000453429 -0.0025167 -0.0183713
128 5 3.16341 11.0182 11.2335 -0.000400214 0.00600826 -0.000255112
17 2 6.70941 13.66 2.40872 0.00559458 0.00325405 0.000923207
29 2 4.76032 12.5867 3.64767 0.00621902 -0.00302496 -0.000687278
33 2 6.09177 12.8202 3.46026 -0.00664126 0.000871548 0.00636386
45 2 6.79223 11.9214 4.31695 0.00313797 -0.00181167 -0.000130977
69 3 3.84203 12.9915 3.2236 -0.0196702 -0.0200683 0.0227957
117 5 5.95502 14.5153 1.83177 0.00030562 0.000916477 -0.00211117
125 5 4.57391 11.6036 4.55272 0.00515289 0.00463615 -0.00161308
24 2 4.55607 12.5556 12.5405 -0.0027934 -0.00417452 0.00499569
56 2 4.43157 11.4085 11.6536 0.00775843 -0.00396086 0.0070846
88 5 1.47725 14.8031 13.1919 -0.00215165 -0.00239831 -0.00688523
116 5 3.51494 13.2518 12.8049 -0.00272598 0.00435265 0.000954571
15 2 10.6801 1.01108 2.3059 0.00635286 -0.00437754 0.00462926
43 2 10.5477 2.12457 3.25294 0.00107281 0.00092507 -0.00313256
51 2 9.3555 2.55255 3.81272 -0.00745907 -0.0046885 -0.00302077
63 3 8.11661 1.15995 0.533648 0.0115583 0.000770669 0.0148373
79 3 8.36318 2.20076 3.73232 0.0167313 -0.00189165 -0.0114276
99 5 9.6343 0.293296 2.16378 0.00110952 0.00576132 -0.00360802
107 5 11.7676 0.891117 1.67509 -0.0046369 0.00402192 -4.45347e-05
123 5 9.57227 3.65877 4.5747 0.000126051 -0.00157067 0.0052422
38 2 9.5259 3.60879 11.1904 0.00272077 0.00707042 0.00526179
59 3 7.25553 0.107151 12.241 -0.01709 -0.00285732 -0.021163
102 5 9.18639 1.65789 12.4448 -0.00297524 -0.000961191 -0.00503839
39 2 10.9247 3.9291 4.50166 -0.00328369 -0.00615036 -0.00411646
58 3 8.70388 7.45428 5.57324 0.0237878 0.0243256 -0.0142003
62 3 6.71052 6.37351 7.21417 0.0103625 -0.00403182 0.015928
98 5 8.22262 7.25522 8.85098 -0.0055994 0.00569051 0.00423658
103 5 10.5891 5.87297 5.77483 -0.00506954 -0.00521728 0.00432956
106 5 10.3719 6.65127 8.3606 0.00444427 0.00136229 0.00615163
1 1 10.8298 7.53592 6.67387 -0.00433148 -0.00108641 -0.00547839
14 2 9.26856 6.52369 8.97831 -0.000259396 0.00219559 -0.00230747
42 2 9.14011 5.40722 9.93085 -0.0015787 -0.00610336 -0.00461078
50 2 7.95726 4.98066 10.4954 -0.000993808 0.000964367 0.000270576
78 3 6.9598 5.34227 10.3957 0.0193417 0.00738553 -0.0272068
122 5 8.16399 3.8775 11.2535 -0.00323593 0.000819605 0.00475682
25 2 11.521 10.5484 2.96572 0.00538391 -0.00732929 -0.00672904
65 3 10.4357 10.5336 3.23714 -0.0206949 0.00515109 0.0238784
4 1 7.75268 8.53263 7.5191 -0.00536066 0.00440103 -0.00118851
12 2 10.2289 9.96619 8.16365 4.8519e-05 0.00384898 0.00735268
82 5 9.06473 7.9237 6.32689 0.00363886 -0.00336567 0.00302678
92 5 6.5142 9.21182 8.80717 0.00233701 -0.0052283 0.00392291
96 5 8.96485 9.80622 8.21873 -0.00209778 -0.00460665 0.00457538
109 5 7.1435 9.81774 6.26782 -0.00263213 -0.00322742 0.00373278
76 3 6.47754 10.8009 11.0754 0.0205073 -0.000172596 -0.0230872
5 1 9.16006 14.0795 0.841813 -0.00287528 -0.00323203 0.000868108
9 2 11.6271 12.6448 1.47519 -0.00657393 -0.0039606 -0.00170478
73 3 7.86307 11.8189 4.41248 0.00261881 0.00886099 -0.00664802
89 5 7.92075 13.3955 2.12441 0.00402666 0.00149944 0.000534179
93 5 10.3748 12.7962 1.5322 0.00280941 -0.00388207 -0.00260533
28 2 10.1043 12.0485 9.6475 -0.00609759 -0.00667109 -0.00428795
68 3 9.03545 12.0643 9.90296 -0.0178326 -0.0182292 0.0108407
83 5 7.6504 14.6782 13.0089 -0.0059112 -0.00553306 0.00536331
112 5 5.74704 12.7918 12.9421 0.00566358 0.00178842 -0.00135484
ITEM: TIMESTEP
15
ITEM: NUMBER OF ATOMS
128
ITEM: BOX BOUNDS xy xz yz pp pp pp
-2.8097637880000002e+00 1.2239000320000001e+01 0.0000000000000000e+00
0.0000000000000000e+00 1.5074000358999999e+01 -2.8097637880000002e+00
0.0000000000000000e+00 1.3358706116000000e+01 0.0000000000000000e+00
ITEM: ATOMS id type x y z vx vy vz
111 5 3.68799 2.29169 0.415005 3.0275e-05 0.00513492 -0.000177186
27 2 -0.691585 3.01654 3.70229 -0.00631931 -0.00145105 -0.00312713
67 3 0.398971 3.01323 3.48498 0.0128908 0.0137546 0.0121492
84 5 1.76751 0.386992 0.362028 -0.00370618 -0.00195186 0.00422302
6 1 0.266218 0.989306 12.5114 -6.37501e-05 -0.00126455 -0.00421466
10 2 -2.20506 2.42519 11.8836 -0.000291773 5.71039e-05 0.00110933
74 3 1.59486 3.27836 8.91992 0.0108269 0.009578 -0.013329
90 5 1.51846 1.68319 11.2382 0.00390294 0.00208323 0.00225644
94 5 -0.94066 2.28082 11.8301 0.0013253 0.0046036 0.00414989
75 3 2.95447 4.28189 2.28083 -0.00979758 0.00634378 0.0138844
110 5 2.28029 5.26212 7.10387 -0.00199819 0.00608652 0.00609577
3 1 1.66836 6.54917 5.83107 -0.00186403 0.00225358 -0.00486115
11 2 -0.792017 5.11105 5.19304 0.00476278 -0.00047173 -0.00624431
81 5 0.372749 7.15021 7.02942 0.00276865 0.00187456 -0.00409641
91 5 2.92404 5.86317 4.5534 0.00423116 0.00411507 -0.00128099
95 5 0.45955 5.27001 5.14958 -0.00165811 0.00458293 0.00331873
26 2 -2.09339 4.52249 10.3946 -0.004126 0.00280485 0.00542149
66 3 -0.99439 4.50987 10.1658 0.0190223 -0.0227438 0.0134389
13 2 0.160541 8.5633 4.37161 6.28027e-05 0.0070294 -0.00415177
41 2 0.284695 9.65047 3.41253 -0.00168706 -0.0067451 -0.00719053
49 2 1.47616 10.0842 2.86293 0.00390831 -0.0069767 -0.000356095
77 3 2.52483 9.762 2.95483 0.0206652 0.0148734 0.0132526
121 5 1.27042 11.2029 2.10678 0.00560252 0.00384862 -0.00219884
40 2 -1.48889 11.1416 8.85644 0.0061032 0.00165582 0.00224244
57 3 0.719595 7.62902 7.74612 -0.0159858 -0.00456899 -0.00897273
61 3 2.6939 8.6636 6.12955 -0.0238448 -0.016617 -0.0223947
97 5 1.20429 7.82873 4.52098 0.00212066 0.00291425 0.00591902
104 5 -1.17196 9.18735 7.58382 -0.00466086 -0.0054963 -0.00282428
105 5 -0.934557 8.42956 5.00735 0.00245816 0.00367422 0.00198201
37 2 -0.101895 11.4778 2.17018 -0.00529727 0.00358029 -0.00221415
60 3 2.15893 14.9568 1.07337 0.00384315 -0.0084236 -0.0104735
101 5 0.239165 13.4063 0.903607 -0.000485217 -0.00591961 -0.0034892
2 1 0.000427765 15.0722 0.00221959 0.000258515 -0.00117558 0.00147688
124 5 -0.152636 11.4035 8.79254 -0.00620395 -0.00683868 0.00207234
16 2 -1.25214 14.049 11.0528 -0.00497146 -0.00619966 -0.00300031
44 2 -1.10954 12.9513 10.1019 0.00485927 0.000577135 -0.000385665
52 2 0.0641425 12.5286 9.55196 -0.00085916 0.00805049 0.00601121
64 3 1.33621 13.9079 12.8081 0.00798682 -0.00350002 -0.020606
80 3 1.09026 12.8773 9.62879 0.00325216 0.0042648 0.00955976
100 5 -0.210359 14.7874 11.2002 -0.00435974 0.000507274 0.00579053
108 5 -2.33671 14.1924 11.6911 0.00417659 0.00358485 0.00493447
115 5 5.91583 1.82458 0.55462 0.00291986 -0.0013538 -0.000123644
23 2 4.87573 2.50662 0.823256 0.00345822 -0.00487507 0.000193811
55 2 5.01066 3.66196 1.71416 0.00326877 4.46077e-05 0.00109761
87 5 7.94794 0.271221 0.152012 -0.00124236 0.00195619 -0.00514439
126 5 4.86674 3.47779 8.80388 0.0042754 0.0019605 -0.000475298
18 2 2.72156 1.40988 10.939 -0.00251741 -0.00479998 -0.00790233
30 2 4.68514 2.47798 9.70119 0.00650053 -0.00455422 -0.00574794
34 2 3.32 2.25317 9.89416 -0.00668832 -0.00103376 -0.00709845
46 2 2.63108 3.14587 9.03063 -0.00552654 -0.00319824 -0.00737717
70 3 5.59637 2.0287 10.1315 0.0174268 -0.0223108 -0.0179389
118 5 3.47142 0.55847 11.5319 -0.00211785 -0.000694134 0.00461268
8 1 3.30878 0.00737679 13.3566 -0.000641129 0.0049009 -0.00140468
19 2 4.12895 6.11968 4.27998 -0.000826811 -0.000233612 0.0054074
31 2 6.08236 5.04728 3.03154 0.00148546 -0.00316096 0.000793609
35 2 4.72615 5.28476 3.2258 -0.00579879 0.00163786 0.000309808
47 2 4.05267 4.3924 2.37258 0.00451738 0.00391689 0.00667319
71 3 6.9713 5.49629 3.48569 -0.00102594 0.0146272 0.00475686
127 5 6.27568 4.06876 2.12109 0.00702221 0.00438892 -0.0027721
119 5 4.87319 6.97542 4.84283 -0.00407552 -0.00122635 -0.00171341
22 2 3.46027 5.03278 7.492 -0.00329994 0.00645047 -0.00675686
54 2 3.60145 3.8779 8.38497 0.000350772 0.00176477 -0.00452722
86 5 6.55101 7.26978 6.84306 0.00400589 0.000652379 0.00262282
114 5 4.51106 5.70482 7.22846 0.00297296 -0.00366635 -0.00382758
21 2 5.97056 10.0483 5.863 0.00417528 -0.00195261 0.00439722
53 2 5.83579 11.1984 4.96792 0.00494907 -0.000406055 0.000779513
85 5 2.88043 7.80866 6.51014 -0.00246695 0.00181431 -0.00610478
113 5 4.91674 9.35525 6.1323 -0.00378076 -0.00542628 0.00511208