LAMMPS (29 Oct 2020)
variable Tini   equal 300
variable nprint equal 5

units            real
newton           on

atom_style       charge
atom_modify      map array
atom_modify      sort 0 0.0

read_data        data.lammps
Reading data file ...
  triclinic box = (0.0000000 0.0000000 0.0000000) to (12.239000 15.074000 13.358706) with tilt (0.0000000 -2.8097638 0.0000000)
  3 by 4 by 3 MPI processor grid
  reading atoms ...
  128 atoms
  read_data CPU = 0.007 seconds
neighbor         1.0 bin
neigh_modify     delay 0 every 1 check no page 100000 one 10000

pair_style       chimesFF
pair_coeff       * * ../../../1-fit/ChIMES_params.txt

velocity         all create ${Tini} 12357
velocity         all create 300 12357
fix              1 all nvt temp ${Tini} ${Tini} 100
fix              1 all nvt temp 300 ${Tini} 100
fix              1 all nvt temp 300 300 100
thermo_style     custom time step temp etotal pe ke press vol density enthalpy pxx pyy pzz lx ly lz
thermo_modify    format float %20.15g flush yes
thermo           1
dump             dump_1 all custom ${nprint} dump_xyz_vxyz id type x y z vx vy vz
dump             dump_1 all custom 5 dump_xyz_vxyz id type x y z vx vy vz
atom_modify      sort 0 0.0

restart          ${nprint} restart.a restart.b
restart          5 restart.a restart.b

timestep         0.1
run              500
Neighbor list info ...
  update every 1 steps, delay 0 steps, check no
  max neighbors/atom: 10000, page size: 100000
  master list distance cutoff = 7
  ghost atom cutoff = 7
  binsize = 3.5, bins = 5 5 4
  1 neighbor lists, perpetual/occasional/extra = 1 0 0
  (1) pair chimesFF, perpetual
      attributes: full, newton on, ghost
      pair build: full/bin/ghost
      stencil: full/ghost/bin/3d
      bin: standard
Per MPI rank memory allocation (min/avg/max) = 2.840 | 3.672 | 3.839 Mbytes
Time Step Temp TotEng PotEng KinEng Press Volume Density Enthalpy Pxx Pyy Pzz Lx Ly Lz 
                   0        0                  300    -20859.6828961884    -20973.2517590934        113.568862905     15192.6407067342     2464.55697854686     1.06760380805506    -20313.6132710361     18894.1531720993     14542.6833788045     12141.0855692987          12.23900032         15.074000359         13.358706116 
                 0.1        1     300.002853872725     -20859.682881794    -20973.2528250693     113.569943275268     15117.0627740701     2464.55697854686     1.06760380805506    -20316.3297569629     18693.9091527309     14474.1025631473     12183.1766063321          12.23900032         15.074000359         13.358706116 
                 0.2        2     299.705800954013    -20859.6827865415    -20973.1402766094     113.457490067932     15036.4476647867     2464.55697854686     1.06760380805506    -20319.2272134499     18484.4961922633     14401.8977526247      12222.949049472          12.23900032         15.074000359         13.358706116 
                 0.3        3     299.112891132521    -20859.6826116905     -20972.915648111     113.233036420492     14950.7964720812     2464.55697854686     1.06760380805506     -20322.305602464     18266.2078269292     14325.9488662076     12260.2327231068          12.23900032         15.074000359         13.358706116 
                 0.4        4      298.23153335653    -20859.6823594449    -20972.5817465306     112.899387085719     14860.1867926826     2464.55697854686     1.06760380805506     -20325.562137147      18039.410091966     14246.3120986257     12294.8381874559          12.23900032         15.074000359         13.358706116 
                 0.5        5     297.072374567383    -20859.6820334177    -20972.1426060181     112.460572600353     14764.7333699565     2464.55697854686     1.06760380805506     -20328.992696887     17804.5017744153     14163.1356805958     12326.5626548585          12.23900032         15.074000359         13.358706116 
                 0.6        6     295.649136087202    -20859.6816372644    -20971.6034246119     111.921787347564      14664.561695988     2464.55697854686     1.06760380805506    -20332.5927747731     17561.9877423004     14076.5102879884     12355.1870576751          12.23900032         15.074000359         13.358706116 
                 0.7        7     293.978406589994    -20859.6811749221    -20970.9704861056     111.289311183498     14559.7982181823     2464.55697854686     1.06760380805506    -20336.3578298388     17312.4319733004     13986.3990058628     12380.5636753837          12.23900032         15.074000359         13.358706116 
                 0.8        8     292.079401918832    -20859.6806528318    -20970.2510713448     110.570418512981     14450.3338852882     2464.55697854686     1.06760380805506    -20340.2917881582     17055.9967067789     13892.6315866964     12402.3733623891          12.23900032         15.074000359         13.358706116 
                 0.9        9     289.973671197941    -20859.6800778405     -20969.453344875     109.773267034462     14336.1766536628     2464.55697854686     1.06760380805506    -20344.3943706025     16793.0412079274     13795.2226942399     12420.2660588212          12.23900032         15.074000359         13.358706116 
                   1       10      287.68474342477      -20859.67945736    -20968.5862213129     108.906763952893     14217.3594553189     2464.55697854686     1.06760380805506     -20348.664400907       16523.95957243     13694.1922772556      12433.926516271          12.23900032         15.074000359         13.358706116 
                 1.1       11     285.237744198952    -20859.6787999569    -20967.6592208444     107.980420887541     14093.8772611392     2464.55697854686     1.06760380805506    -20353.1020684002     16249.1546513787     13589.4437506548      12443.033381384          12.23900032         15.074000359         13.358706116 
                 1.2       12     282.658979961481    -20859.6781144974    -20966.6823109778     107.004196480375     13965.7543497512     2464.55697854686     1.06760380805506    -20357.7065093006     15969.0303789656     13480.9571203804     12447.2755499076          12.23900032         15.074000359         13.358706116 
                 1.3       13     279.975496053579    -20859.6774103747    -20965.6657394683     105.988329093561     13833.0588054823     2464.55697854686     1.06760380805506     -20362.475285844     15683.9995939431     13368.7169265976     12446.4598959063          12.23900032         15.074000359         13.358706116 
                 1.4       14       277.2146121358    -20859.6766971491    -20964.6198580855     104.943160936378     13695.8405338799     2464.55697854686     1.06760380805506    -20367.4066138339      15394.569768652     13252.7212912832     12440.2305417044          12.23900032         15.074000359         13.358706116 
                 1.5       15     274.403451767525    -20859.6759844476    -20963.5549444291     103.878959981483     13554.1018063935     2464.55697854686     1.06760380805506    -20372.5004212545     15101.0747776321     13132.9567743379     12428.2738672104          12.23900032         15.074000359         13.358706116 
                 1.6       16     271.568476448382    -20859.6752815532    -20962.4810251235     102.805743570287     13407.9376616585     2464.55697854686     1.06760380805506    -20377.7533014118     14803.9580252323     13009.4948267271     12410.3601330162          12.23900032         15.074000359         13.358706116 
                 1.7       17     268.735030139326    -20859.6745970035    -20961.4077029891     101.733105985547     13257.4262605451     2464.55697854686     1.06760380805506    -20383.1624535042     14503.6757004032     12882.3212040958     12386.2818771362          12.23900032         15.074000359         13.358706116 
                 1.8       18     265.926914244219    -20859.6739387247    -20960.3439962799     100.670057555171     13102.6542598113     2464.55697854686     1.06760380805506    -20388.7247707513      14200.682925063     12751.4650749382     12355.8147794327          12.23900032         15.074000359         13.358706116 
                 1.9       19     263.165998261121    -20859.6733134151    -20959.2981906744     99.6248772592492     12943.7559440423     2464.55697854686     1.06760380805506    -20394.4354332556     13895.4657084639      12616.987462092     12318.8146615711          12.23900032         15.074000359         13.358706116 
                   2       20     260.471878340514     -20859.672726401    -20958.2777098738     98.6049834728724     12780.9084303884     2464.55697854686     1.06760380805506    -20400.2880802154     13588.5175926691     12478.9917044092      12275.215994087          12.23900032         15.074000359         13.358706116 
                 2.1       21     257.861595759393     -20859.672181493    -20957.2890088839     97.6168273908767     12614.3327203412     2464.55697854686     1.06760380805506    -20406.2747719768      13280.389956655      12337.604913513     12225.0032908556          12.23900032         15.074000359         13.358706116 
                 2.2       22     255.349421773042    -20859.6716809036    -20956.3374924843      96.665811580712     12444.2944681411     2464.55697854686     1.06760380805506    -20412.3859623326     12971.6787969823     12192.9713411366     12168.2332663045          12.23900032         15.074000359         13.358706116 
                 2.3       23     252.946714209959    -20859.6712242507    -20955.4274599453     95.7562356946037      12271.176749577     2464.55697854686     1.06760380805506    -20418.6078819939     12663.1270371002     12045.2772923017     12105.1259193291          12.23900032         15.074000359         13.358706116 
                 2.4       24     250.661853776901     -20859.670811458     -20954.562083815     94.8912723570066      12095.313844399     2464.55697854686     1.06760380805506    -20424.9285158554     12355.3048087314     11894.8355617541     12035.8011627115          12.23900032         15.074000359         13.358706116 
                 2.5       25     248.500240425432    -20859.6704393022    -20953.7434050913      94.072965789118     11916.9980473257     2464.55697854686     1.06760380805506    -20431.3373547345     12048.6970147675     11741.8841630847     11960.4129641248          12.23900032         15.074000359         13.358706116 
                 2.6       26     246.464360059933     -20859.670103273    -20952.9723603351     93.3022570620501     11736.5615829757     2464.55697854686     1.06760380805506    -20437.8224529596     11743.8866237176     11586.5988625339     11879.1992626754          12.23900032         15.074000359         13.358706116 
                 2.7       27     244.553924411339    -20859.6697980085    -20952.2488350564     92.5790370478371     11554.4438265472     2464.55697854686     1.06760380805506    -20444.3680126903      11441.540692324     11429.3014771359     11792.4893101818          12.23900032         15.074000359         13.358706116 
                 2.8       28     242.766057403833    -20859.6695168007    -20951.5717337717     91.9022169709441     11371.0131810599     2464.55697854686     1.06760380805506    -20450.9607856957     11142.2701028165     11270.1305697557     11700.6388706074          12.23900032         15.074000359         13.358706116 
                 2.9       29     241.095529964656    -20859.6692523728    -20950.9390696714     91.2698172985477     11186.7544735625     2464.55697854686     1.06760380805506    -20457.5833385434     10846.8670448956     11109.3494382918     11604.0469375001          12.23900032         15.074000359         13.358706116 
                   3       30     239.535025928188    -20859.6689968517    -20950.3480652536     90.6790684019468      11002.094871834     2464.55697854686     1.06760380805506    -20464.2203096534     10555.8653877786     10947.2496322272     11503.1695954962          12.23900032         15.074000359         13.358706116 
                 3.1       31     238.075430591945    -20859.6687428483    -20949.7952626415     90.1265197931513     10817.5531779949     2464.55697854686     1.06760380805506    -20470.8530443138     10269.9656967415      10784.168590525     11398.5252467182          12.23900032         15.074000359         13.358706116 
                 3.2       32     236.706130308641    -20859.6684820254    -20949.2766355647     89.6081535393171     10633.5067466336     2464.55697854686     1.06760380805506    -20477.4679709177      9989.6377881861     10620.3541629665     11290.5282887484          12.23900032         15.074000359         13.358706116 
                 3.3       33     235.415316534476    -20859.6682066078    -20948.7877059719     89.1194993641371     10450.4470408571     2464.55697854686     1.06760380805506    -20484.0474170142     9715.49410042194       10456.08655448     11179.7604676693          12.23900032         15.074000359         13.358706116 
                 3.4       34      234.19029310432    -20859.6679092176    -20948.3236601884     88.6557509708209     10268.7541931214     2464.55697854686     1.06760380805506    -20490.5777121109       9448.017076117     10291.6288538184     11066.6166494288          12.23900032         15.074000359         13.358706116 
                 3.5       35     233.017772785079    -20859.6675828658     -20947.879461172     88.2118783061902     10088.8900858772     2464.55697854686     1.06760380805506    -20497.0422477616     9187.72327009804     10127.2597744477      10951.687213086          12.23900032         15.074000359         13.358706116 
                 3.6       36     231.884146483667     -20859.667221318    -20947.4499507909     87.7827294728216      9911.2008998468     2464.55697854686     1.06760380805506    -20503.4285749457     8935.02109065261     9963.20590481428     10835.3757040735          12.23900032         15.074000359         13.358706116 
                 3.7       37     230.775728587265    -20859.6668200015    -20947.0299436073      87.363123605762     9736.12834206579     2464.55697854686     1.06760380805506    -20509.7208127988     8690.32121307799     9799.80130200514     10718.2625111142          12.23900032         15.074000359         13.358706116 
                 3.8       38     229.678993281534    -20859.6663711832    -20946.6143115171       86.94794033383     9563.98794131633     2464.55697854686     1.06760380805506    -20515.9076125258     8453.93510884916     9637.24997868118     10600.7787364187          12.23900032         15.074000359         13.358706116 
                 3.9       39      228.58079986393    -20859.6658715902    -20946.1980766651      86.532205074873     9394.98178358233     2464.55697854686     1.06760380805506    -20521.9817072698     8226.13197268302     9475.58310229064     10483.2302757733          12.23900032         15.074000359         13.358706116 
                   4       40     227.468583296269     -20859.665317243    -20945.7764784149     86.1111611718952     9229.38401884068     2464.55697854686     1.06760380805506    -20527.9332392692     8007.14975090881     9314.95997064307     10366.0423349702          12.23900032         15.074000359         13.358706116 
                 4.1       41      226.33051367504    -20859.6647046336    -20945.3450348962     85.6803302625962     9067.43389153473     2464.55697854686     1.06760380805506    -20533.7536058443     7797.15509676836     9155.50584946451     10249.6407283713          12.23900032         15.074000359         13.358706116 
                 4.2       42     225.155644095659    -20859.6640307638    -20944.8995990191     85.2355682552894       8909.320874934     2464.55697854686     1.06760380805506    -20539.4359937524     7596.28512312777     8997.34137998104     10134.3361216932          12.23900032         15.074000359         13.358706116 
                 4.3       43     223.934039242039     -20859.663293426    -20944.4364074342     84.7731140081402     8755.28556698495     2464.55697854686     1.06760380805506    -20544.9717529656     7404.75061205083      8840.6353079992     10020.4707809048          12.23900032         15.074000359         13.358706116 
                 4.4       44     222.656887069715    -20859.6624897797    -20943.9521213879     84.2896316082486      8605.3950720649     2464.55697854686     1.06760380805506     -20550.358468708     7222.47408801843     8685.33990585331     9908.37122232294          12.23900032         15.074000359         13.358706116 
                 4.5       45     221.316600094801    -20859.6616182901     -20943.443867006     83.7822487158907     8459.67870031325     2464.55697854686     1.06760380805506    -20555.5950859498     7049.24566065618     8531.49252504573     9798.29791523784          12.23900032         15.074000359         13.358706116 
                 4.6       46     219.906900510532     -20859.660677549    -20942.9092663355     83.2485887864804     8318.17953295866     2464.55697854686     1.06760380805506    -20560.6800548124     6884.96725073709     8379.12515596035     9690.44619217853          12.23900032         15.074000359         13.358706116 
                 4.7       47     218.422888775823    -20859.6596662946    -20942.3464633302     82.6867970356515     8180.90734816936     2464.55697854686     1.06760380805506    -20565.6130225771     6729.50815096444     8228.19134650444     9585.02254703918          12.23900032         15.074000359         13.358706116 
                 4.8       48     216.861102445297    -20859.6585834733    -20941.7541461834     82.0955627101237     8047.85494397135     2464.55697854686     1.06760380805506    -20570.3942470511     6582.64408998716     8078.67348450626     9482.24725742063          12.23900032         15.074000359         13.358706116 
                 4.9       49     215.219564290349    -20859.6574285441    -20941.1315658487     81.4741373045483      7918.9801331772     2464.55697854686     1.06760380805506    -20575.0252440289     6444.17497287821     7930.53470217497     9382.23072447842          12.23900032         15.074000359         13.358706116 
                   5       50     213.497817688694    -20859.6562011289    -20940.4785490876     80.8223479586799     7794.20869863265     2464.55697854686     1.06760380805506    -20579.5086807222     6313.79148030441     7783.76674233494      9285.0678732586          12.23900032         15.074000359         13.358706116 
                 5.1       51     211.696952053535     -20859.654901241    -20939.7955083249     80.1406070839143     7673.44679038836     2464.55697854686     1.06760380805506    -20583.8479303965     6191.13020451979     7638.36273707573     9190.84742956956          12.23900032         15.074000359         13.358706116 
                 5.2       52     209.819612041466    -20859.6535290547    -20939.0834449038     79.4299158490583     7556.50558535628     2464.55697854686     1.06760380805506     -20588.049780101     6075.84559888692     7494.11080488111      9099.5603523008          12.23900032         15.074000359         13.358706116 
                 5.3       53     207.869992526998    -20859.6520855215    -20938.3439477994     78.6918622778735     7443.31129028288     2464.55697854686     1.06760380805506    -20592.1168831406     5967.77561690043     7350.94715560275     9011.21109834546          12.23900032         15.074000359         13.358706116 
                 5.4       54     205.853816579381    -20859.6505714279    -20937.5791843398     77.9286129119158     7333.63515083021     2464.55697854686     1.06760380805506    -20596.0574624273     5866.37619337674     7208.77548126781     8925.75377784607          12.23900032         15.074000359         13.358706116 
                 5.5       55     203.778291043663    -20859.6489889115    -20936.7918849067     77.1428959951766     7227.23323347737     2464.55697854686     1.06760380805506    -20599.8802878098     5771.15170611659     7067.43726242343     8843.11073189208          12.23900032         15.074000359         13.358706116 
                 5.6       56     201.652035582535    -20859.6473398596    -20935.9853144715     76.3379746119569     7123.98313194421     2464.55697854686     1.06760380805506    -20603.5897608287     5681.78380279526     6926.80585130821     8763.35974172917          12.23900032         15.074000359         13.358706116 
                 5.7       57     199.485007668877    -20859.6456270975    -20935.1632453893      75.517618291832     7023.50926145058     2464.55697854686     1.06760380805506    -20607.1993839665     5597.62047224346     6786.74048008002     8686.16683202827          12.23900032         15.074000359         13.358706116 
                 5.8       58     197.288399778178    -20859.6438541109    -20934.3299182014     74.6860640905159     6925.62800148599     2464.55697854686     1.06760380805506    -20610.7157605874     5518.19796787464     6647.21361387719     8611.47242270615          12.23900032         15.074000359         13.358706116 
                 5.9       59     195.074497500985    -20859.6420242739    -20933.4899871505     73.8479628765039     6829.99686833831     2464.55697854686     1.06760380805506    -20614.1512039696     5442.98145023883     6508.05398743048     8538.95516734562          12.23900032         15.074000359         13.358706116 
                   6       60     192.856523338745    -20859.6401423244    -20932.6484625223     73.0083201979761     6736.31145662934     2464.55697854686     1.06760380805506    -20617.5166601044     5371.45654843119     6369.05981376777     8468.41800768907          12.23900032         15.074000359         13.358706116 
                 6.1       61     190.648450490128    -20859.6382130551    -20931.8106388443     72.1724257892136     6644.25718568536     2464.55697854686     1.06760380805506    -20620.8234407691     5303.07876104617     6230.11034699911      8399.5824490108          12.23900032         15.074000359         13.358706116 
                 6.2       62     188.464794610696    -20859.6362419383    -20930.9820166768     71.3457747385369     6553.57705655259     2464.55697854686     1.06760380805506    -20624.0807887581     5237.44442601124     6091.09608143441     8332.19066221212          12.23900032         15.074000359         13.358706116 
                 6.3       63     186.320382427201    -20859.6342348692    -20930.1682147635      70.533979894273     6463.95359951305     2464.55697854686     1.06760380805506    -20627.3001207923     5173.82733422135     5951.99918403259      8266.0342802852          12.23900032         15.074000359         13.358706116 
                 6.4       64     184.230110084963    -20859.6321969642    -20929.3748773483     69.7426803840408     6375.03180789485     2464.55697854686     1.06760380805506    -20630.4942020054     5111.64110967697     5812.66820757075     8200.78610643681          12.23900032         15.074000359         13.358706116 
                 6.5       65     182.208694064479    -20859.6301342942    -20928.6075816153     68.9774473210262     6286.46056482824     2464.55697854686     1.06760380805506    -20633.6756586744     5050.30580699735     5672.96806453631     8136.10782295106          12.23900032         15.074000359         13.358706116 
                 6.6       66     180.270409550093    -20859.6280527908    -20927.8717375509     68.2436847600757     6198.03302392451     2464.55697854686     1.06760380805506    -20636.8519314181     4989.36567602055     5532.86797438946     8071.86542136352          12.23900032         15.074000359         13.358706116 
                 6.7       67      178.42883907632    -20859.6259567772    -20927.1724913217     67.5465345445228     6109.42795098257     2464.55697854686     1.06760380805506    -20640.0345706918      4928.1980995904     5392.34384053824     8007.74191281908          12.23900032         15.074000359         13.358706116 
                 6.8       68     176.696630328852    -20859.6238514643     -20926.514636083      66.890784618643     6020.35626556122     2464.55697854686     1.06760380805506    -20643.2339721354     4866.22101294244     5251.36774762704     7943.48003611418          12.23900032         15.074000359         13.358706116 
                 6.9       69     175.085263849736    -20859.6217412578    -20925.9025223473     66.2807810894549     5930.56874449183     2464.55697854686     1.06760380805506    -20646.4590979914     4802.84269125326     5109.94268334863     7878.92085887359          12.23900032         15.074000359         13.358706116 
                   7       70     173.604847566319    -20859.6196286534    -20925.3399790964     65.7203504430089     5839.77505204789     2464.55697854686     1.06760380805506     -20649.720386303     4737.33618733893     4968.10698455355     7813.88198425119          12.23900032         15.074000359         13.358706116 
                 7.1       71     172.263943799441    -20859.6175160398    -20924.8302500959     65.2127340561113     5747.72416433829     2464.55697854686     1.06760380805506    -20653.0268620196     4669.08451546635     4825.91709325055     7748.17088429797          12.23900032         15.074000359         13.358706116 
                 7.2       72     171.069428801217    -20859.6154041521    -20924.3759391746     64.7605350225401     5654.27053980827     2464.55697854686     1.06760380805506    -20656.3837570814     4597.50024705567     4683.53849200972     7681.77288035942          12.23900032         15.074000359         13.358706116 
                 7.3       73     170.026396189898    -20859.6132930844    -20923.9789746814     64.3656815970724     5559.16873408629     2464.55697854686     1.06760380805506    -20659.7998935984     4522.01352247067     4540.98022359126     7614.51245619693          12.23900032         15.074000359         13.358706116 
                 7.4       74     169.138094340262    -20859.6111820366    -20923.6405855304     64.0294034938073     5462.26078655517     2464.55697854686     1.06760380805506    -20663.2809483547     4442.03229703174     4398.40418715455     7546.34587547922          12.23900032         15.074000359         13.358706116 
                 7.5       75     168.405895315049    -20859.6090689266    -20923.3612890514     63.7522201247618     5363.42587166236     2464.55697854686     1.06760380805506    -20666.8312621051     4357.04593390499     4255.94717861367     7477.28450246841          12.23900032         15.074000359         13.358706116 
                 7.6       76     167.829299094732     -20859.606951152    -20923.1408933531     63.5339422011062     5262.48567660275     2464.55697854686     1.06760380805506    -20670.4572413508     4266.37290496034     4113.75272676249     7407.33139808541          12.23900032         15.074000359         13.358706116 
                 7.7       77     167.405970106971    -20859.6048252019    -20922.9785107638     63.3736855618572     5159.35980198607     2464.55697854686     1.06760380805506    -20674.1617723791     4169.49445366021       3972.001448846     7336.58350345201          12.23900032         15.074000359         13.358706116 
                 7.8       78     167.131807316396    -20859.6026870048    -20922.8725847121      63.269897707269     5053.98431411081     2464.55697854686     1.06760380805506    -20677.9471490898     4065.94067539563     3830.90987494705     7265.10239198975          12.23900032         15.074000359         13.358706116 
                 7.9       79     167.001033903031    -20859.6005320425    -20922.8209237902     63.2203917477551     4946.21947402211     2464.55697854686     1.06760380805506    -20681.8183896067     3955.12288872681     3690.64531319588     7192.89022014365          12.23900032         15.074000359         13.358706116 
                   8       80     167.006302168763    -20859.5983559296    -20922.8207420472     63.2223861175843     4836.08164364237     2464.55697854686     1.06760380805506    -20685.7749014475     3836.64348557809     3551.50446212969     7120.09698321934          12.23900032         15.074000359         13.358706116 
                 8.1       81      167.13882159136    -20859.5961527044    -20922.8687057557     63.2725530513748     4723.48752373354     2464.55697854686     1.06760380805506    -20689.8196726779     3710.04642971559     3413.64639886038     7046.76974262463          12.23900032         15.074000359         13.358706116 
                 8.2       82     167.388502057231    -20859.5939175441    -20922.9609903508     63.3670728067033     4608.39881798354     2464.55697854686     1.06760380805506    -20693.9540749608     3574.98079732947     3277.24729841774     6972.96835820342          12.23900032         15.074000359         13.358706116 
                 8.3       83     167.744100385163    -20859.5916451282    -20923.0933342608     63.5016891325503     4490.79392724554     2464.55697854686     1.06760380805506    -20698.1788793146     3431.08322838426     3142.51925429801     6898.77929905435          12.23900032         15.074000359         13.358706116 
                 8.4       84     168.193378200131    -20859.5893299329    -20923.2610989673     63.6717690344648     4370.70183664623     2464.55697854686     1.06760380805506    -20702.4930384019     3278.07472344121     3009.76234499476      6824.2684415027          12.23900032         15.074000359         13.358706116 
                 8.5       85       168.7232665582    -20859.5869665265    -20923.4593316219     63.8723650954401     4248.07162227885     2464.55697854686     1.06760380805506    -20706.8983771511     3115.71312913887     2879.03831612275     6749.46342157494          12.23900032         15.074000359         13.358706116 
                 8.6       86     169.319645882031    -20859.5846278518    -20923.6827600195     64.0981321676649     4127.87830691203     2464.55697854686     1.06760380805506    -20711.2161510846     2946.37752396853     2762.76443692269     6674.49295984486          12.23900032         15.074000359         13.358706116 
                 8.7       87     169.966527973655    -20859.5822370182    -20923.9252547311     64.3430177129296     4023.74508270201     2464.55697854686     1.06760380805506    -20714.9566244316     2776.98290703477     2694.61595377722     6599.63638729404          12.23900032         15.074000359         13.358706116 
                 8.8       88     170.646924520168    -20859.5797595727    -20924.1803501593     64.6005905866362     3934.88077831022     2464.55697854686     1.06760380805506    -20718.1481998388     2607.17422586628     2672.54836373302     6524.91974533135          12.23900032         15.074000359         13.358706116 
                 8.9       89     171.344529671011    -20859.5771821192    -20924.4418601183      64.864677999096      3858.7902997292     2464.55697854686     1.06760380805506    -20720.8805451626     2435.76449885955     2690.44258328086     6450.16381704719          12.23900032         15.074000359         13.358706116 
                   9       90     172.044302755261    -20859.5744922785    -20924.7040783892      65.129586110662     3792.15476400526     2464.55697854686     1.06760380805506    -20723.2729387519     2261.19016878728     2740.07565464219      6375.1984685863          12.23900032         15.074000359         13.358706116 
                 9.1       91     172.732936934947    -20859.5716816231    -20924.9619590696     65.3902774464766      3730.8427150269     2464.55697854686     1.06760380805506    -20725.4738692531     2081.49141688925     2811.01672026915     6300.02000792231          12.23900032         15.074000359         13.358706116 
                 9.2       92     173.399202910947    -20859.5687466443    -20925.2112476551     65.6425010107653     3669.72902367402     2464.55697854686     1.06760380805506    -20727.6675458557     1894.24957066998     2890.76574936863     6224.17175098346          12.23900032         15.074000359         13.358706116 
                 9.3       93     174.034064761721    -20859.5656925546    -20925.4485286937     65.8828361390792     3603.18188944429     2464.55697854686     1.06760380805506    -20730.0563977779     1696.78477381253     2965.46430798276     6147.29658653757          12.23900032         15.074000359         13.358706116 
                 9.4       94     174.630495378802    -20859.5625316335    -20925.6711542625     66.1086226290247     3525.42631770071     2464.55697854686     1.06760380805506    -20732.8480081369     1486.32433443827     3020.86509251797     6069.08952614589          12.23900032         15.074000359         13.358706116 
                 9.5       95     175.183008300837    -20859.5592817162    -20925.8770652263     66.3177835100109     3430.98525110399     2464.55697854686     1.06760380805506    -20736.2392568345     1260.25060485981     3043.51391027044     5989.19123818171          12.23900032         15.074000359         13.358706116 
                 9.6       96      175.68698688388    -20859.5559620149    -20926.0645331069     66.5085710920262     3315.25070674227     2464.55697854686     1.06760380805506    -20740.3957879766     1016.39613877871      3022.1098577948     5907.24612365328          12.23900032         15.074000359         13.358706116 
                 9.7       97     176.137961189292    -20859.5525886784    -20926.2318819007     66.6792932222431     3175.01309992021     2464.55697854686     1.06760380805506    -20745.4329799287     753.350754443909     2948.74746296683     5822.94108234989          12.23900032         15.074000359         13.358706116 
                 9.8       98     176.531019792653    -20859.5491697645    -20926.3772603822     66.8280906177054     3008.82837478068     2464.55697854686     1.06760380805506    -20751.4027444998     470.604696100683     2819.87871375412     5736.00171448724          12.23900032         15.074000359         13.358706116 
                 9.9       99     176.860517582142    -20859.5457042346    -20926.4985304833     66.9528262486455     2817.20001170878     2464.55697854686     1.06760380805506    -20758.2869840379     168.633092092788     2636.76268999758     5646.20425303597          12.23900032         15.074000359         13.358706116 
                  10      100     177.120169558561     -20859.542180883    -20926.5933017307     67.0511208476885     2602.65881551105     2464.55697854686     1.06760380805506      -20765.99472253    -150.984518578319      2405.4252412956     5553.53572381588          12.23900032         15.074000359         13.358706116 
                10.1      101     177.303520510416    -20859.5385825832    -20926.6591132946     67.1205307114045     2369.34507589151     2464.55697854686     1.06760380805506    -20774.3771282696    -485.717070594513     2135.98874865997     5457.76354960907          12.23900032         15.074000359         13.358706116 
                10.2      102     177.404670130133     -20859.534889861    -20926.6937120634     67.1588222023859     2122.66713447314     2464.55697854686     1.06760380805506    -20783.2397895674     -832.38311743652     1841.65573820728     5358.72878264866          12.23900032         15.074000359         13.358706116 
                10.3      103     177.419086930062    -20859.5310857585    -20926.6953656261      67.164279867635     1868.86696875773     2464.55697854686     1.06760380805506     -20792.358333846    -1187.28121296317     1537.51836097221     5256.36375826417          12.23900032         15.074000359         13.358706116 
                10.4      104     177.344333705864    -20859.5271595356    -20926.6631406077     67.1359810720663     1614.47223941478     2464.55697854686     1.06760380805506    -20801.4981264258    -1546.49799860527     1239.28333668255     5150.63138016706          12.23900032         15.074000359         13.358706116 
                10.5      105     177.180563861269    -20859.5231077105    -20926.5970915991     67.0739838886367     1365.85981548924     2464.55697854686     1.06760380805506    -20810.4299597942    -1906.15097664944     962.188934160707     5041.54148895645          12.23900032         15.074000359         13.358706116 
                10.6      106     176.930734079711    -20859.5189335771     -20926.498341185     66.9794076079325     1128.93394170463     2464.55697854686     1.06760380805506     -20818.941620767    -2262.51107431465     720.228300038124     4929.08459939042          12.23900032         15.074000359         13.358706116 
                10.7      107     176.600556229237    -20859.5146447424    -20926.3690592736     66.8544145311499     908.968803419546     2464.55697854686     1.06760380805506    -20826.8435467194    -2612.18701426877      525.84683038933     4813.24659413807          12.23900032         15.074000359         13.358706116 
                10.8      108      176.19827625547    -20859.5102498117    -20926.2123760789     66.7021262671826     710.700236274495     2464.55697854686     1.06760380805506    -20833.9655259477    -2951.98442122478     390.007824158019     4694.07730589025          12.23900032         15.074000359         13.358706116 
                10.9      109     175.733548781304    -20859.5059144669    -20926.0321121647     66.5261976978435     529.634555050239     2464.55697854686     1.06760380805506    -20840.4692408216    -3283.78794775154     301.247066391518     4571.44454651073          12.23900032         15.074000359         13.358706116 
                  11      110     175.214839183876    -20859.5015529334     -20925.831386434     66.3298335006508     348.341884405465     2464.55697854686     1.06760380805506    -20846.9810881956    -3616.46234987026     216.434616901022     4445.05338618564          12.23900032         15.074000359         13.358706116 
                11.1      111     174.649129165841    -20859.4971498741    -20925.6128265632     66.1156766890434     166.304965456672     2464.55697854686     1.06760380805506    -20853.5196445872    -3949.88174205312     133.868636783157     4314.92800163998          12.23900032         15.074000359         13.358706116 
                11.2      112     174.043299000661    -20859.4927102022    -20925.3790420814     65.8863318791334    -16.1853663635795     2464.55697854686     1.06760380805506     -20860.074461401    -4283.38718128646     53.5861875937496     4181.24489460197          12.23900032         15.074000359         13.358706116 
                11.3      113     173.404036183439    -20859.4882378365    -20925.1325685448      65.644330708302    -198.805363560836     2464.55697854686     1.06760380805506    -20866.6339060883    -4616.28379750666    -24.3387607584119     4044.20646758256          12.23900032         15.074000359         13.358706116 
                11.4      114     172.737710042221    -20859.4837359584    -20924.8758203261     65.3920843676955    -381.218932984328     2464.55697854686     1.06760380805506    -20873.1859016223    -4947.91733960078    -99.8263266553702     3904.08686730317          12.23900032         15.074000359         13.358706116 
                11.5      115     172.050273530323    -20859.4792070705     -20924.611053495     65.1318464244434    -563.035224401858     2464.55697854686     1.06760380805506     -20879.716402162    -5277.55282775704    -172.773928070422     3761.22108262189          12.23900032         15.074000359         13.358706116 
                11.6      116     171.347197973931    -20859.4746519362    -20924.3403400557     64.8656881195242    -743.769305873214     2464.55697854686     1.06760380805506    -20886.2079785446    -5604.44786271496    -243.002651612877      3616.1425967082          12.23900032         15.074000359         13.358706116 
                11.7      117     170.633434960526    -20859.4700720614    -20924.0655560016     64.5954839401375    -922.974663790809     2464.55697854686     1.06760380805506    -20892.6445832218    -5927.89134567412    -310.348800300185     3469.31615460188          12.23900032         15.074000359         13.358706116 
                11.8      118     169.913396170036    -20859.4654676195     -20923.788371604     64.3229039845258    -1100.19352226212     2464.55697854686     1.06760380805506    -20899.0097625115    -6247.17813281804    -374.617709208785     3321.21527524047          12.23900032         15.074000359         13.358706116 
                11.9      119     169.190950277994     -20859.460838335    -20923.5102511247     64.0494127896273    -1274.84502940991     2464.55697854686     1.06760380805506    -20905.2826385589    -6561.50887681622    -435.556455699702     3172.53024428618          12.23900032         15.074000359         13.358706116 
                  12      120     168.469446008174    -20859.4561835507    -20923.2324616087     63.7762780579454    -1446.43823668492     2464.55697854686     1.06760380805506    -20911.4455645253    -6870.16747218233    -492.991345969889     3023.84410809745          12.23900032         15.074000359         13.358706116 
                12.1      121     167.751747485632    -20859.4515019386    -20922.9560859795     63.5045840408998    -1614.43842938725     2464.55697854686     1.06760380805506    -20917.4793198133    -7172.41331681738    -546.656522473697     2875.75455112934          12.23900032         15.074000359         13.358706116 
                12.2      122     167.040267355675    -20859.4467933193    -20922.6820373958     63.2352440764374    -1778.34528522873     2464.55697854686     1.06760380805506    -20923.3659211419    -7467.48344341998    -596.391347023723      2728.8389347575          12.23900032         15.074000359         13.358706116 
                12.3      123     166.337000684227    -20859.4420566803    -20922.4110701028     62.9690134224529    -1937.61391103871     2464.55697854686     1.06760380805506    -20929.0857823838    -7754.61723279218    -642.000190546921     2583.77569022296          12.23900032         15.074000359         13.358706116 
                12.4      124     165.643557256198    -20859.4372914994    -20922.1437929832     62.7065014837521    -2091.64970888624     2464.55697854686     1.06760380805506    -20934.6175313622    -8033.00703852294     -683.23585192871     2441.29376379294          12.23900032         15.074000359         13.358706116 
                12.5      125     164.961189622952    -20859.4324970696    -20921.8806794993     62.4481824297826    -2239.90257961688     2464.55697854686     1.06760380805506    -20939.9413951367    -8301.91174492711    -719.810723689567     2302.01472976605          12.23900032         15.074000359         13.358706116 
                12.6      126     164.290816305867    -20859.4276725487    -20921.6220765273     62.1944039786383    -2381.77719273057     2464.55697854686     1.06760380805506    -20945.0359748798    -8560.48404725719    -751.516092716313      2166.6685617818          12.23900032         15.074000359         13.358706116 
                12.7      127      163.63305175918    -20859.4228175894    -20921.3682163293     61.9453987398836    -2516.84343455861     2464.55697854686     1.06760380805506    -20949.8858106534    -8808.15764744812    -778.163931779289     2035.79127555157          12.23900032         15.074000359         13.358706116 
                12.8      128     162.988230128644     -20859.417931406    -20921.1192246147     61.7012932086954    -2644.57105642924     2464.55697854686     1.06760380805506    -20954.4718429247    -9044.20833274013    -799.504203421248     1909.99936687367          12.23900032         15.074000359         13.358706116 
                12.9      129      162.35642365417      -20859.41301343    -20920.8751281624     61.4621147324217    -2764.49152023068     2464.55697854686     1.06760380805506    -20958.7772304433    -9267.98018114616    -815.362003548573      1789.8676240027          12.23900032         15.074000359         13.358706116 
                  13      130      161.73746390991    -20859.4080631289    -20920.6358626802       61.22779955129    -2876.11784864817     2464.55697854686     1.06760380805506    -20962.7844692338     -9478.7518775327    -825.539964644288     1675.93829623248          12.23900032         15.074000359         13.358706116 
                13.1      131     161.130963575732    -20859.4030796071    -20920.4012806474     60.9982010402761    -2979.03498859427     2464.55697854686     1.06760380805506    -20966.4786401327     -9675.9129555199    -829.888523523957     1568.69651326103          12.23900032         15.074000359         13.358706116 
                13.2      132     160.536345024175    -20859.3980619919    -20920.1711625229     60.7731005310678    -3072.84558560057     2464.55697854686     1.06760380805506    -20969.8454601414    -9858.85765100349    -828.276056921742     1468.59695112352          12.23900032         15.074000359         13.358706116 
                13.3      133      159.95287623533    -20859.3930085999     -20919.945229508      60.552220908102    -3157.13439072813     2464.55697854686     1.06760380805506    -20972.8700022693    -10026.9870503649    -820.488076954806     1376.07195513534          12.23900032         15.074000359         13.358706116 
                13.4      134     159.379711852501    -20859.3879193721    -20919.7231615228      60.335242150717    -3231.54017484395     2464.55697854686     1.06760380805506    -20975.5392827858    -10179.7095962745    -806.403237049039     1291.49230879168          12.23900032         15.074000359         13.358706116 
                13.5      135     158.815933380677    -20859.3827923786    -20919.5046089294      60.121816550799    -3295.81991567509     2464.55697854686     1.06760380805506    -20977.8445648027    -10316.5013868817    -786.105603618665     1215.14724347512          12.23900032         15.074000359         13.358706116 
                13.6      136     158.260600920478    -20859.3776260363    -20919.2892143337     59.9115882973354    -3349.69687604621     2464.55697854686     1.06760380805506    -20979.7758999628    -10436.8228309261    -759.571315494044     1147.30351828153          12.23900032         15.074000359         13.358706116 
                13.7      137     157.712816798546    -20859.3724187107    -20919.0766362752     59.7042175645181    -3392.97867424986     2464.55697854686     1.06760380805506    -20981.3263718491    -10540.2819641205    -726.820950250038     1088.16689162095          12.23900032         15.074000359         13.358706116 
                13.8      138     157.171791341639    -20859.3671685493    -20918.8665739607     59.4994054113729    -3425.45494528568     2464.55697854686     1.06760380805506    -20982.4884174524    -10626.4277019757    -687.838516324019     1037.90138244272          12.23900032         15.074000359         13.358706116 
                13.9      139     156.636909228703    -20859.3618740958     -20918.658792996     59.2969189001917    -3446.97560987778     2464.55697854686     1.06760380805506    -20983.2566410115    -10694.8475680167    -642.697167226785     996.617905610175          12.23900032         15.074000359         13.358706116 
                  14      140     156.107797290134    -20859.3565335178    -20918.4531502807     59.0966167628159    -3457.49130558895     2464.55697854686     1.06760380805506    -20983.6292664584    -10745.2656519895    -591.563541853694     964.355277076334          12.23900032         15.074000359         13.358706116 
                14.1      141     155.584396204547     -20859.351144607    -20918.2496211494     58.8984765423714    -3456.89024317759     2464.55697854686     1.06760380805506      -20983.60227354      -10777.35051271    -534.441946952565     941.121730129798          12.23900032         15.074000359         13.358706116 
                14.2      142     155.067022519588     -20859.345707109     -20918.048325181     58.7026180720455    -3445.15901298247     2464.55697854686     1.06760380805506    -20983.1751800179    -10790.8498786828    -471.506834007396     926.879673742805          12.23900032         15.074000359         13.358706116 
                14.3      143     154.556412271327    -20859.3402199867    -20917.8495399745       58.50931998777    -3422.33102452614     2464.55697854686     1.06760380805506    -20982.3491856948    -10785.5756911819    -402.922124639226     921.504742242753          12.23900032         15.074000359         13.358706116 
                14.4      144     154.053774395766    -20859.3346805315    -20917.6537204793      58.319039947835    -3388.45297452943     2464.55697854686     1.06760380805506    -20981.1259662839    -10761.1844967866    -329.012172208839     924.837745407122          12.23900032         15.074000359         13.358706116 
                14.5      145     153.560832980366    -20859.3290890123      -20917.46151964     58.1324306277491    -3343.75483431402     2464.55697854686     1.06760380805506    -20979.5137879215    -10717.7801471871     -250.15082515487     936.666469399956          12.23900032         15.074000359         13.358706116 
                14.6      146     153.079838859817    -20859.3234450835    -20917.2737891935      57.950344109967    -3288.43279761271     2464.55697854686     1.06760380805506    -20977.5197020605    -10655.3317371478    -166.638100384441     956.671444694108          12.23900032         15.074000359         13.358706116 
                14.7      147     152.613568588741    -20859.3177488611    -20917.0915803561     57.7738314949917    -3222.70301429511     2464.55697854686     1.06760380805506     -20975.151477899    -10573.8403386276    -78.7975884893052     984.528884231562          12.23900032         15.074000359         13.358706116 
                14.8      148     152.165306083865    -20859.3120009197    -20916.9161368715     57.6041359517859    -3146.74931777412     2464.55697854686     1.06760380805506    -20972.4157235427    -10473.2581064454     13.1356839805568     1019.87446914248          12.23900032         15.074000359         13.358706116 
                14.9      149     151.738791982329    -20859.3062021875    -20916.7488757342     57.4426735467046    -3060.89885588161     2464.55697854686     1.06760380805506     -20969.324198606    -10353.7680787677      108.73475264692     1062.33675847597          12.23900032         15.074000359         13.358706116 
                  15      150     151.338150373887    -20859.3003542286    -20916.5913597356     57.2910055070275     -2965.5094847689     2464.55697854686     1.06760380805506    -20965.8897670892    -10215.5339585267     207.568728774173     1111.43677544583          12.23900032         15.074000359         13.358706116 
                15.1      151     150.967800403905    -20859.2944586655    -20916.4452634226     57.1508047571348     -2860.8958352794     2464.55697854686     1.06760380805506    -20962.1237394026    -10058.6821509416     309.247946508854     1166.74669859455          12.23900032         15.074000359         13.358706116 
                15.2      152     150.632339847455     -20859.288517796      -20916.31232964     57.0238118439831    -2747.48484910808     2464.55697854686     1.06760380805506    -20958.0414634244    -9883.52815949575     413.379343777782     1227.69426839373          12.23900032         15.074000359         13.358706116 
                15.3      153     150.336408667812     -20859.282533941    -20916.1943172264      56.911783285416    -2625.69291244648     2464.55697854686     1.06760380805506    -20953.6579076592     -9690.3737489952     519.550650634749     1293.74436102101          12.23900032         15.074000359         13.358706116 
                15.4      154     150.084534690249    -20859.2765095524    -20916.0929427004     56.8164331479919    -2495.93356324502     2464.55697854686     1.06760380805506    -20948.9879383682    -9479.54538055452      627.37876446338     1364.36592635609          12.23900032         15.074000359         13.358706116 
                15.5      155     149.880968992696    -20859.2704470901    -20916.0098178221     56.7393707320002     -2358.6350326189     2464.55697854686     1.06760380805506    -20944.0469499374    -9251.41829874428     736.469973641299     1439.04322724627          12.23900032         15.074000359         13.358706116 
                15.6      156     149.729510908759     -20859.264348569    -20915.9463828931     56.6820343240984    -2214.16136242621     2464.55697854686     1.06760380805506    -20938.8480291513    -9006.26896849413     846.509552292087     1517.27532892342          12.23900032         15.074000359         13.358706116 
                15.7      157     149.633345692347    -20859.2582158578     -20915.903845601     56.6456297431686     -2063.0288358421     2464.55697854686     1.06760380805506    -20933.4097346631     -8744.6691841193     957.085942639685     1598.49673395332          12.23900032         15.074000359         13.358706116 
                15.8      158     149.594894516009    -20859.2520497038    -20915.8831232591     56.6310735552551      -1905.632560399     2464.55697854686     1.06760380805506     -20927.746268584    -8467.01524016956     1067.89745849186      1682.2201004807          12.23900032         15.074000359         13.358706116 
                15.9      159     149.615665026886    -20859.2458516328    -20915.8847881324      56.638936499596    -1742.42703157877     2464.55697854686     1.06760380805506    -20921.8739683872     -8173.8884775416     1178.60450940288      1768.0028734024          12.23900032         15.074000359         13.358706116 
                  16      160     149.696125913577    -20859.2396212024    -20915.9090172067     56.6693960042956    -1573.82054526995     2464.55697854686     1.06760380805506     -20915.807509024    -7865.86705357609      1288.9537617458     1855.45165602044          12.23900032         15.074000359         13.358706116 
                16.1      161      149.83562756218    -20859.2333560113    -20915.9555621609     56.7222061496464    -1400.21401310713     2464.55697854686     1.06760380805506    -20909.5612980742     -7543.4805586666     1398.66209956224     1944.17641978297          12.23900032         15.074000359         13.358706116 
                16.2      162     150.032365702186      -20859.22705406    -20916.0237379658     56.7966839058145     -1222.0305744446     2464.55697854686     1.06760380805506    -20903.1505424511    -7207.33591026532     1507.42293012857     2033.82125680296          12.23900032         15.074000359         13.358706116 
                16.3      163     150.283376252973    -20859.2207122587    -20916.1124194407     56.8917071819147    -1039.64624141523     2464.55697854686     1.06760380805506    -20896.5887540824      -6858.095061473     1615.04646559904     2124.10987162826          12.23900032         15.074000359         13.358706116 
                16.4      164     150.584577219188    -20859.2143256717    -20916.2200563578     57.0057306860444    -853.344227871082     2464.55697854686     1.06760380805506    -20889.8861075979    -6496.29338522391     1721.37498113183     2214.88572047883          12.23900032         15.074000359         13.358706116 
                16.5      165     150.930857105987     -20859.207890283     -20916.344709679     57.1368193960133    -663.361424488956     2464.55697854686     1.06760380805506    -20883.0511135517    -6122.48763930552     1826.32808094425      2306.0752848944          12.23900032         15.074000359         13.358706116 
                16.6      166     151.316184802096    -20859.2013991929    -20916.4840893499     57.2826901569895    -470.124560940188     2464.55697854686     1.06760380805506    -20876.0991030038    -5737.54303502285     1929.75313773893     2397.41621446335          12.23900032         15.074000359         13.358706116 
                16.7      167     151.733768364013    -20859.1948459807    -20916.6356177721     57.4407717913053    -273.919295288568     2464.55697854686     1.06760380805506    -20869.0403369515    -5342.14173301679      2031.5829739324     2488.80087321868          12.23900032         15.074000359         13.358706116 
                16.8      168     152.176268687474    -20859.1882244185    -20916.7965104051     57.6082859865405    -74.8245744522953     2464.55697854686     1.06760380805506    -20861.8776467587    -4936.57000780807     2131.86107603256     2580.23520841862          12.23900032         15.074000359         13.358706116 
                16.9      169     152.635997637559    -20859.1815286541    -20916.9638509543     57.7823223002261     126.780282574076     2464.55697854686     1.06760380805506    -20854.6246604494    -4521.91609843415     2230.53958672708     2671.71735942929          12.23900032         15.074000359         13.358706116 
                  17      170      153.10512792847    -20859.1747515737    -20917.1346691862     57.9599176125363     330.631367311222     2464.55697854686     1.06760380805506    -20847.2908565816    -4098.95096543267      2327.5952081095     2763.24985925683          12.23900032         15.074000359         13.358706116 
                17.1      171     153.575935055077    -20859.1678874998    -20917.3060352124     58.1381477125906     536.513643334315     2464.55697854686     1.06760380805506    -20839.8839585397    -3668.39377072281       2423.109261876     2854.82543884975          12.23900032         15.074000359         13.358706116 
                17.2      172     154.041032100655    -20859.1609305304    -20917.4751467184     58.3142161879466      744.26894099033     2464.55697854686     1.06760380805506    -20832.4096455192    -3230.92450432169     2517.18583080647     2946.54549648621          12.23900032         15.074000359         13.358706116 
                17.3      173     154.493591662576    -20859.1538770539    -20917.6394154914     58.4855384374271     953.818891104643     2464.55697854686     1.06760380805506    -20824.8707307344    -2787.01667102857     2610.02008411359     3038.45326022891          12.23900032         15.074000359         13.358706116 
                17.4      174     154.927544016109    -20859.1467223888    -20917.7965390773     58.6498166885793     1164.75896437543     2464.55697854686     1.06760380805506    -20817.2817495149    -2337.76363700162     2701.51441502616     3130.52611510177          12.23900032         15.074000359         13.358706116 
                17.5      175     155.337759747658    -20859.1394643051     -20917.944573441     58.8051091358387     1376.91152232409     2464.55697854686     1.06760380805506    -20809.6490844971    -1883.92487059265     2791.75956849938     3222.89986906553          12.23900032         15.074000359         13.358706116 
                17.6      176     155.720200739521    -20859.1321010931    -20918.0819881908     58.9498870977524     1590.06168090671     2464.55697854686     1.06760380805506    -20801.9804575558    -1426.22263845455     2880.98633813408      3315.4213430406          12.23900032         15.074000359         13.358706116 
                17.7      177      156.07204643128     -20859.124630923    -20918.2077137379     59.0830828148561     1803.97049232137     2464.55697854686     1.06760380805506    -20794.2844553707    -965.360432901433     2969.18466292329     3408.08724694224          12.23900032         15.074000359         13.358706116 
                17.8      178     156.391800022852    -20859.1170538942    -20918.3211835484     59.2041296542049     2018.31102040786     2464.55697854686     1.06760380805506    -20786.5728291192    -502.366373589601     3056.46062711431     3500.83880769888          12.23900032         15.074000359         13.358706116 
                17.9      179     156.679353372655     -20859.109370812    -20918.4223574894     59.3129866774104     2232.79007668904     2464.55697854686     1.06760380805506    -20778.8561176905    -38.0967472631861     3142.86216115634     3593.60481617396          12.23900032         15.074000359         13.358706116 
                  18      180      156.93601537194    -20859.1015833581    -20918.5117327402     59.4101493821093     2447.11935383408     2464.55697854686     1.06760380805506    -20771.1446854069     426.590844561356     3228.47846131382     3686.28875562706          12.23900032         15.074000359         13.358706116 
                18.1      181     157.164507525181    -20859.0936936386    -20918.5903416674     59.4966480288638     2660.97164656608     2464.55697854686     1.06760380805506    -20763.4502951254     890.787010031316     3313.36106500133     3778.76686466559          12.23900032         15.074000359         13.358706116 
                18.2      182     157.368930379242    -20859.0857044027    -20918.6597393352     59.5740349324888     2874.02150036364     2464.55697854686     1.06760380805506    -20755.7846474188     1353.58084489665     3397.58228542899     3870.90137076527          12.23900032         15.074000359         13.358706116 
                18.3      183     157.554698975494    -20859.0776189599    -20918.7219789865     59.6443600266215     3085.91956766029     2464.55697854686     1.06760380805506    -20748.1603022083     1814.03989232175     3481.19776548963      3962.5210451695          12.23900032         15.074000359         13.358706116 
                18.4      184     157.728447641094    -20859.0694408721    -20918.7795756933     59.7101348212328     3296.29603578096     2464.55697854686     1.06760380805506    -20740.5905552461     2271.21301308035     3564.26153197201      4053.4135622905          12.23900032         15.074000359         13.358706116 
                18.5      185     157.897907865024    -20859.0611740574    -20918.8354602285     59.7742861710307     3504.82398698254     2464.55697854686     1.06760380805506    -20733.0871608664     2724.20113246658     3646.83664940733     4143.43417907371          12.23900032         15.074000359         13.358706116 
                18.6      186     158.071756613128    -20859.0528227454    -20918.8929215985      59.840098853163     3711.08080026756     2464.55697854686     1.06760380805506    -20725.6653135802     3171.98879325359     3728.92283015689      4232.3307773922          12.23900032         15.074000359         13.358706116 
                18.7      187     158.259439435514    -20859.0443910399    -20918.9555396421     59.9111486022468     3914.62782712243     2464.55697854686     1.06760380805506    -20718.3407838507     3613.55965404744     3810.51437854155      4319.8094487783          12.23900032         15.074000359         13.358706116 
                18.8      188     158.470973355689    -20859.0358830858    -20919.0271105773      59.991227491514     4115.04030495635     2464.55697854686     1.06760380805506    -20711.1288430794     4047.92759691484       3891.606809084      4405.5865088702          12.23900032         15.074000359         13.358706116 
                18.9      189     158.716728358649    -20859.0273028924    -20919.1115641047     60.0842612123117     4311.88913994946     2464.55697854686     1.06760380805506    -20704.0449182101     4474.11499007442     3972.17967462533     4489.37275514863          12.23900032         15.074000359         13.358706116 
                  19      190     159.007192648762    -20859.0186540575     -20919.212874267     60.1942202094539     4504.76654619423     2464.55697854686     1.06760380805506    -20697.1036699042     4891.19370834739     4052.20838814773     4570.89754208756          12.23900032         15.074000359         13.358706116 
                19.1      191     159.352724140197    -20859.0099403292    -20919.3349659339      60.325025604721     4693.27299818821     2464.55697854686     1.06760380805506    -20690.3194620688      5298.2596109666     4131.68050822067     4649.87887537736          12.23900032         15.074000359         13.358706116 
                19.2      192     159.763292531533    -20859.0011643755    -20919.4816159314     60.4804515558836      4876.9824963042     2464.55697854686     1.06760380805506    -20683.7076090918     5694.36690836955     4210.54397495234     4726.03660559072          12.23900032         15.074000359         13.358706116 
                19.3      193      160.24821691786    -20858.9923286285    -20919.6563545548     60.6640259263837     5055.47549156918     2464.55697854686     1.06760380805506     -20677.283193269     6078.62266067128     4288.75501518533     4799.04879885094          12.23900032         15.074000359         13.358706116 
                19.4      194     160.815905972783    -20858.9834346572    -20919.8623665851     60.8789319278879     5228.36643573329     2464.55697854686     1.06760380805506    -20671.0600739438     6450.19736057116     4366.26311780201     4868.63882882669          12.23900032         15.074000359         13.358706116 
                19.5      195     161.473608049502     -20858.974483247    -20920.1023967649      61.127913517832     5395.31312839978     2464.55697854686     1.06760380805506    -20665.0505516228     6808.33290804673      4443.0313459535     4934.57513119909          12.23900032         15.074000359         13.358706116 
                19.6      196     162.227175457573    -20858.9654742375    -20920.3786604008      61.413186163355     5556.00556147814     2464.55697854686     1.06760380805506    -20659.2657687771     7152.33079272866     4519.03709412452     4996.64879758124          12.23900032         15.074000359         13.358706116 
                19.7      197      163.08085424141    -20858.9564058459    -20920.6927631052     61.7363572592431     5710.27881876547     2464.55697854686     1.06760380805506    -20653.7116512131     7481.58373877858     4594.48795870022     5054.76475881761          12.23900032         15.074000359         13.358706116 
                19.8      198     164.037105261305     -20858.947276708    -20921.0456351038     62.0983583958474     5857.97049445632     2464.55697854686     1.06760380805506    -20648.3940349241     7795.53629648773     4669.43115037413     5108.94403650709          12.23900032         15.074000359         13.358706116 
                19.9      199     165.096446259781     -20858.938083061    -20921.4374686322     62.4993855712659     5998.74680172008     2464.55697854686     1.06760380805506    -20643.3249134593     8093.70850221554     4743.62389946535     5158.90800347934          12.23900032         15.074000359         13.358706116 
                  20      200     166.257343588285    -20858.9288199826    -20921.8676781857     62.9388582030914      6132.4888324809     2464.55697854686     1.06760380805506    -20638.5085558136     8375.71962656909     4817.08283923089     5204.66403164273          12.23900032         15.074000359         13.358706116 
                20.1      201     167.516165444554    -20858.9194815032     -20922.334882929     63.4154014258126     6259.12857354679     2464.55697854686     1.06760380805506    -20633.9474006179     8641.29812858989     4889.86317984827     5246.22441220219          12.23900032         15.074000359         13.358706116 
                20.2      202      168.86718125859    -20858.9100606046     -20922.836906463     63.9268458583686     6378.65906199707     2464.55697854686     1.06760380805506    -20629.6416911226      8890.2239099867     4962.04026551444     5283.71301049006          12.23900032         15.074000359         13.358706116 
                20.3      203     170.302615554171    -20858.9005492118    -20923.3707972059     64.4702479941152     6491.10001428473     2464.55697854686     1.06760380805506    -20625.5907105835     9122.34301405728     5033.72124030822     5317.23578848868          12.23900032         15.074000359         13.358706116 
                20.4      204     171.812760513056    -20858.8909380543    -20923.9328708677     65.0419328134562     6596.62528860193     2464.55697854686     1.06760380805506    -20621.7882007388     9337.71055573172     5105.05822187339     5347.10708820066          12.23900032         15.074000359         13.358706116 
                20.5      205      173.38613831059    -20858.8812182883    -20924.5187735264     65.6375552380758     6695.35441021764     2464.55697854686     1.06760380805506     -20618.229856644     9536.29006919059      5176.1906706713     5373.58249079101          12.23900032         15.074000359         13.358706116 
                20.6      206     175.009707320968     -20858.871379892    -20925.1235580846     66.2521781925974     6787.49130956448     2464.55697854686     1.06760380805506    -20614.9083383981     9718.18055033883     5247.30766794632     5396.98571040828          12.23900032         15.074000359         13.358706116 
                20.7      207     176.669121079091    -20858.8614125503    -20925.7417831882     66.8803706379272     6873.31677792244     2464.55697854686     1.06760380805506    -20611.8135431954     9883.60365516084     5318.59623506799     5417.75044353848          12.23900032         15.074000359         13.358706116 
                20.8      208     178.349015172826    -20858.8513074798    -20926.3676236578     67.5163161780146     6953.09460435288     2464.55697854686     1.06760380805506    -20608.9359808727     10032.7025548671     5390.28022721297     5436.30103097855          12.23900032         15.074000359         13.358706116 
                20.9      209     180.033312510271    -20858.8410554944    -20926.9949841171     68.1539286227068     7027.14548864573     2464.55697854686     1.06760380805506      -20606.26411532     10165.7313274356     5462.59874757395     5453.10639092766          12.23900032         15.074000359         13.358706116 
                  21      210     181.705548651631    -20858.8306486898    -20927.6176238361     68.7869751463164     7095.86219266587     2464.55697854686     1.06760380805506    -20603.7838215794     10283.0294609101     5535.82449622775     5468.73262085977          12.23900032         15.074000359         13.358706116 
                21.1      211     183.349202128337    -20858.8200800166    -20928.2292813508     69.4092013341809     7159.66076668192     2464.55697854686     1.06760380805506    -20601.4801384917     10385.0345951245     5610.21781201296     5483.72989290827          12.23900032         15.074000359         13.358706116 
                21.2      212     184.948013361755    -20858.8093450139    -20928.8237969274     70.0144519134441     7218.95330187266     2464.55697854686     1.06760380805506    -20599.3382497883     10472.1621796709     5686.02742216603     5498.67030378109          12.23900032         15.074000359         13.358706116 
                21.3      213     186.486278396451    -20858.7984398223    -20929.3952217719     70.5967819495673     7274.10436790794     2464.55697854686     1.06760380805506    -20597.3450478691      10544.766772633     5763.51301633235     5514.03331475847          12.23900032         15.074000359         13.358706116 
                21.4      214     187.949120238329    -20858.7873627298    -20929.9379222947     71.1505595648738     7325.58726573171     2464.55697854686     1.06760380805506    -20595.4835191495     10603.3501358753     5842.95003259966     5530.46162872014          12.23900032         15.074000359         13.358706116 
                21.5      215     189.322733373319    -20858.7761138653    -20930.4466723695     71.6705585042478     7373.79740163113     2464.55697854686     1.06760380805506     -20593.739451656     10648.3836371303     5924.58759859706     5548.42096916599          12.23900032         15.074000359         13.358706116 
                21.6      216     190.594588168282     -20858.764695273    -20930.9167307867     72.1520355137284     7419.16022741752     2464.55697854686     1.06760380805506    -20592.0975554034     10680.3943880399     6008.66125935833     5568.42503485437          12.23900032         15.074000359         13.358706116 
                21.7      217     191.753592148959    -20858.7531105792    -20931.3439019735     72.5907913943546     7462.11087924758     2464.55697854686     1.06760380805506    -20590.5421939036       10699.94127851     6095.41511917561     5590.97624005713          12.23900032         15.074000359         13.358706116 
                21.8      218     192.790212807085    -20858.7413652875    -20931.7245827799     72.9832174923788     7503.05454550939     2464.55697854686     1.06760380805506    -20589.0588089596     10707.5807052597     6185.03812291377     5616.54480835467          12.23900032         15.074000359         13.358706116 
                21.9      219     193.696559815648    -20858.7294663441     -20932.055793167     73.3263268229116     7542.39476894575     2464.55697854686     1.06760380805506    -20587.6329029663     10703.8946896912     6277.71861923529     5645.57099791074          12.23900032         15.074000359         13.358706116 
                  22      220     194.466428602016    -20858.7174219646    -20932.3351925297     73.6177705650911     7580.54301911605     2464.55697854686     1.06760380805506    -20586.2496946745     10689.5264288182     6373.63389354609     5678.46873498389          12.23900032         15.074000359         13.358706116 
                22.1      221     195.095311243101    -20858.7052415059    -20932.5610836925     73.8558421865869     7617.89408371104     2464.55697854686     1.06760380805506    -20584.8950035729     10665.1331553245     6472.94247690709     5715.60661890151          12.23900032         15.074000359         13.358706116 
                22.2      222     195.580375110369    -20858.6929352378    -20932.7324045972     74.0394693593932     7654.82257126474     2464.55697854686     1.06760380805506    -20583.5553753635     10631.3680465808     6575.76615479598     5757.33351241739          12.23900032         15.074000359         13.358706116 
                22.3      223     195.920416609478    -20858.6805139384    -20932.8487103858     74.1681964473744     7691.66259373244     2464.55697854686     1.06760380805506    -20582.2188118265     10588.9081063258     6682.16871989488     5803.91095497665          12.23900032         15.074000359         13.358706116 
                22.4      224     196.115797654738    -20858.6679889024    -20932.9101493602     74.2421604578523     7728.78618757368     2464.55697854686     1.06760380805506    -20580.8719521371     10538.5034861423     6792.26322065346     5855.59185592534          12.23900032         15.074000359         13.358706116 
                22.5      225     196.168365541318    -20858.6553714351    -20932.9174321433     74.2620607081994      7766.5542612026     2464.55697854686     1.06760380805506    -20579.5018354563     10480.9018138846     6906.10862873329     5912.65234098992          12.23900032         15.074000359         13.358706116 
                22.6      226     196.081360306604    -20858.6426733867     -20932.871797143     74.2291237562889     7805.30975405988     2464.55697854686     1.06760380805506    -20578.0961473501     10416.8568870555     7023.79214950006     5975.28022562406          12.23900032         15.074000359         13.358706116 
                22.7      227     195.859316728481    -20858.6299057322    -20932.7749720329     74.1450663006795     7845.29069510021     2464.55697854686     1.06760380805506    -20576.6463433101     10347.1454541162     7145.21893684368     6043.50769434074          12.23900032         15.074000359         13.358706116 
                22.8      228     195.507965411957    -20858.6170795064    -20932.6291372421     74.0120577356868     7886.76126333893     2464.55697854686     1.06760380805506    -20575.1429389754     10272.5635690428       7270.349587946     6117.37063302797          12.23900032         15.074000359         13.358706116 
                22.9      229     195.034132551193    -20858.6042052116    -20932.4368874166     73.8326822050069     7929.95580091244     2464.55697854686     1.06760380805506    -20573.5775218807     10193.8943470948     7399.09392206341     6196.87913357916          12.23900032         15.074000359         13.358706116 
                  23      230     194.445642220081    -20858.5912928036    -20932.2011944161     73.6099016125568     7975.10037156957     2464.55697854686     1.06760380805506    -20571.9419765643     10111.9373753301     7531.35064217196     6282.01309720666          12.23900032         15.074000359         13.358706116 
                23.1      231     193.751168365799    -20858.5783640156    -20931.9253636083     73.3469995927299     8023.56414763518     2464.55697854686     1.06760380805506    -20570.1871125498     10029.7411762531     7667.87404651777     6373.07722013471          12.23900032         15.074000359         13.358706116 
                23.2      232     192.959921094571    -20858.5654212131    -20931.6128839629     73.0474627498298     8080.64670779322     2464.55697854686     1.06760380805506    -20568.1224492578     9957.85697658913     7812.38011601278     6471.70303077776          12.23900032         15.074000359         13.358706116 
                23.3      233     192.081621282906    -20858.5524641071    -20931.2674351539     72.7149710468282     8146.66079355979     2464.55697854686     1.06760380805506    -20565.7367455197     9897.45215318754     7964.88303702025     6577.64719047158          12.23900032         15.074000359         13.358706116 
                23.4      234     191.126674067848    -20858.5395000159    -20930.8929634983     72.3534634823336     8221.28802670051     2464.55697854686     1.06760380805506    -20563.0414521341     9848.42522121064     8124.86492685002     6690.57393204085          12.23900032         15.074000359         13.358706116 
                23.5      235     190.106126023394    -20858.5265350612    -20930.4936569404     71.9671218791718     8304.06652625084     2464.55697854686     1.06760380805506    -20560.0531766266     9810.47091649986     8291.71684593756     6810.01181631508          12.23900032         15.074000359         13.358706116 
                23.6      236      189.03160322386    -20858.5135742995     -20930.073921737     71.5603474374763     8394.36602230597     2464.55697854686     1.06760380805506    -20556.7945778673     9783.06505142048     8464.56222694958     6935.47078854786          12.23900032         15.074000359         13.358706116 
                23.7      237     187.915254651966    -20858.5006223381    -20929.6383616492     71.1377393110911     8491.35890150111     2464.55697854686     1.06760380805506       -20553.2954074     9765.31771948698     8642.41648991961     7066.34249509675          12.23900032         15.074000359         13.358706116 
                23.8      238     186.769688856131    -20858.4876833975    -20929.1917540258     70.7040706283716     8593.99184804658     2464.55697854686     1.06760380805506    -20549.5935288122     9755.94971577175     8824.09831558073     7201.92751278725          12.23900032         15.074000359         13.358706116 
                23.9      239     185.607891401491    -20858.4747616033    -20928.7390188455      70.264257242207     8700.97478205834     2464.55697854686     1.06760380805506    -20545.7353156166     9753.28637268534     9008.23340449453     7341.40456899515          12.23900032         15.074000359         13.358706116 
[...]
                44.4      444     159.714910979476    -20855.0502544847    -20915.5123905811     60.4621360963747     1077.42848148604     2464.55697854686     1.06760380805506    -20816.3242042627     3180.38945240542    -319.090947313755      370.98693936645          12.23900032         15.074000359         13.358706116 
                44.5      445     160.222869831807    -20855.0304824496    -20915.6849129102     60.6544304605804     954.631083140455     2464.55697854686     1.06760380805506    -20820.7181434829     2885.40171599483     -384.52281860164     363.014352028169          12.23900032         15.074000359         13.358706116 
                44.6      446     160.686136563955    -20855.0105948127    -20915.8404008599     60.8298060472196     832.644906986422     2464.55697854686     1.06760380805506    -20825.0828093131     2589.57925417138    -448.362813548039     356.718280335928          12.23900032         15.074000359         13.358706116 
                44.7      447     161.095070235102    -20854.9905935801    -20915.9752067341     60.9846131540056     711.947713122459     2464.55697854686     1.06760380805506    -20829.4010316115     2293.87701801324    -510.326537843033     352.292659197171          12.23900032         15.074000359         13.358706116 
                44.8      448     161.441105014554    -20854.9704828174    -20916.0860918928     61.1156090754318     593.038780600879     2464.55697854686     1.06760380805506    -20833.6548688386     1999.26793052398     -570.08075293734     349.929164215993          12.23900032         15.074000359         13.358706116 
                44.9      449     161.716910373058    -20854.9502678569    -20916.1702866021     61.2200187452601      476.38741149547     2464.55697854686     1.06760380805506    -20837.8274581858     1706.69158189734    -627.315470705467      349.78612329454          12.23900032         15.074000359         13.358706116 
                  45      450     161.916523805844    -20854.9299560287    -20916.2255410092     61.2955849805335     362.402083336201     2464.55697854686     1.06760380805506    -20841.9041250608     1416.99043584975    -681.764461119965     351.980275278816          12.23900032         15.074000359         13.358706116 
                45.1      451     162.035453947604    -20854.9095557281    -20916.2501632452     61.3406075170831     251.531181233035     2464.55697854686     1.06760380805506     -20845.868761537     1131.07256109537    -733.105928858745      356.62691146248          12.23900032         15.074000359         13.358706116 
                45.2      452     162.070750608053    -20854.8890771793    -20916.2430467017     61.3539695223879     144.175462912452     2464.55697854686     1.06760380805506    -20849.7069733891     849.787578110114    -781.068148733996     363.806959361236          12.23900032         15.074000359         13.358706116 
                45.3      453     162.021045461986    -20854.8685307927    -20916.2036837921     61.3351529993235     40.6659863718116     2464.55697854686     1.06760380805506    -20853.4068717986     573.870060580242    -825.432662777706     373.560561312899          12.23900032         15.074000359         13.358706116 
                45.4      454     161.886569597154    -20854.8479278407    -20916.1321732698     61.2842454291331    -58.6576828661084     2464.55697854686     1.06760380805506    -20856.9562630218     304.084018244241     -865.96736654546     385.910299702894          12.23900032         15.074000359         13.358706116 
                45.5      455     161.669149272415    -20854.8272798338    -20916.0292179994      61.201938165623    -153.467359501207     2464.55697854686     1.06760380805506    -20860.3433625935     41.1776305013462    -902.432576969079     400.852867964109          12.23900032         15.074000359         13.358706116 
                45.6      456     161.372182307706     -20854.806597945    -20915.8961154423     61.0895174972819    -243.361052702969     2464.55697854686     1.06760380805506    -20863.5537329159    -214.079657662836    -934.452540663068     418.449040216998          12.23900032         15.074000359         13.358706116 
                45.7      457     161.000590236642    -20854.7858953834    -20915.7347419174     60.9488465340308    -328.171012522602     2464.55697854686     1.06760380805506    -20866.5813577558    -461.092167760215    -961.969413196975     438.548543389383          12.23900032         15.074000359         13.358706116 
                45.8      458     160.560745363082    -20854.7651824159    -20915.5475200094     60.7823375935481    -407.697517619595     2464.55697854686     1.06760380805506    -20869.4190687889    -699.174287783341    -984.974960112588     461.056695037146          12.23900032         15.074000359         13.358706116 
                45.9      459     160.060390677817    -20854.7444700417    -20915.3373919264     60.5929218846992    -481.794772788281     2464.55697854686     1.06760380805506     -20872.061636692    -927.836783618604    -1003.39844466534     485.850909919105          12.23900032         15.074000359         13.358706116 
                  46      460     159.508546892095    -20854.7237681528    -20915.1077824667     60.3840143138803    -550.321004600376     2464.55697854686     1.06760380805506    -20874.5039755899    -1146.54851197899    -1017.20406918165     512.789567359515          12.23900032         15.074000359         13.358706116 
                46.1      461     158.915399167331    -20854.7030859219     -20914.862556527     60.1594706050932      -613.1408139054     2464.55697854686     1.06760380805506    -20876.7412279985    -1354.79376438758    -1026.37673931837     541.748061989749          12.23900032         15.074000359         13.358706116 
                46.2      462     158.292169578467    -20854.6824314174    -20914.6059704367     59.9235390193064    -670.171327534692     2464.55697854686     1.06760380805506    -20878.7704232734    -1552.09619052281    -1030.93958975847     572.521797677203          12.23900032         15.074000359         13.358706116 
                46.3      463     157.650973452255    -20854.6618117289    -20914.3426176983     59.6808059694633    -721.354549265185     2464.55697854686     1.06760380805506    -20880.5894839435    -1738.01208778059    -1030.93554728124     604.883987266279          12.23900032         15.074000359         13.358706116 
                46.4      464     157.004657723827    -20854.6412326768    -20914.0773675051     59.4361348282791    -766.673747137378     2464.55697854686     1.06760380805506    -20882.1978144321    -1912.13560019496    -1026.48262948667     638.596988269496          12.23900032         15.074000359         13.358706116 
                46.5      465     156.366622355036    -20854.6206988214    -20913.8152971453     59.1945983238568     -806.12950538062     2464.55697854686     1.06760380805506    -20883.5954402982    -2074.09247098469    -1017.71171326326     673.415668106097          12.23900032         15.074000359         13.358706116 
                46.6      466      155.75062532166    -20854.6002133799     -20913.561618095     58.9614047150787    -839.749166045644     2464.55697854686     1.06760380805506    -20884.7833475155    -2223.54349898793    -1004.78562315839     709.081624009383          12.23900032         15.074000359         13.358706116 
                46.7      467     155.170569965058     -20854.579778225    -20913.3215955158     58.7418172908414    -867.551655018521     2464.55697854686     1.06760380805506    -20885.7622182103    -2360.17387270006    -987.832193787253     745.351101431749          12.23900032         15.074000359         13.358706116 
                46.8      468     154.640278359788    -20854.5593935585     -20913.100462134      58.541068575446    -889.588021314132     2464.55697854686     1.06760380805506    -20886.5338874412    -2483.71331738684     -967.01322204767     781.962475492112          12.23900032         15.074000359         13.358706116 
                46.9      469       154.1732512604    -20854.5390582699    -20912.9033277232     58.3642694533684    -906.005383802541     2464.55697854686     1.06760380805506    -20887.1036419962    -2593.94459992711     -942.68122966852     818.609678188011          12.23900032         15.074000359         13.358706116 
                  47      470      153.78241815411    -20854.5187695414    -20912.7350840899     58.2163145484783    -916.893455346525     2464.55697854686     1.06760380805506    -20887.4747036104    -2690.64702719145    -915.058031113869     855.024692265743          12.23900032         15.074000359         13.358706116 
                47.1      471      153.47988082415    -20854.4985234338    -20912.6003085805     58.1017851466456    -922.354716745537     2464.55697854686     1.06760380805506    -20887.6507518155    -2773.68455936906    -884.356547649891     890.976956782346          12.23900032         15.074000359         13.358706116 
                47.2      472      153.27665830303    -20854.4783129434    -20912.5031655879     58.0248526445111    -922.490338914279     2464.55697854686     1.06760380805506    -20887.6354159975    -2842.95515377515    -850.771366915682     926.255503947994          12.23900032         15.074000359         13.358706116 
                47.3      473     153.182449362585    -20854.4581303778    -20912.4473190148     57.9891886370382    -917.488733738218     2464.55697854686     1.06760380805506    -20887.4354605592    -2898.38791877882    -814.699157924946     960.620875489107          12.23900032         15.074000359         13.358706116 
                47.4      474     153.205409268989    -20854.4379665585    -20912.4358469638     57.9978804052475    -907.436643657865     2464.55697854686     1.06760380805506    -20887.0539941088    -2939.94286394446    -776.389234124351     994.022167095214          12.23900032         15.074000359         13.358706116 
                47.5      475     153.351939416538     -20854.417809924    -20912.4711612034     58.0533512793756    -892.529287069455     2464.55697854686     1.06760380805506    -20886.4980218263    -2967.64048595033    -736.061240845953     1026.11386558792          12.23900032         15.074000359         13.358706116 
                47.6      476     153.626512971569    -20854.3976474598    -20912.5549420939     58.1572946341376    -872.883855434226     2464.55697854686     1.06760380805506    -20885.7717429142    -2981.52714256123      -693.9131983027     1056.78877456125          12.23900032         15.074000359         13.358706116 
                47.7      477     154.031545180998    -20854.3774646426     -20912.688089435     58.3106247923534    -848.628728075466     2464.55697854686     1.06760380805506    -20884.8797571919    -2981.70122770077    -650.122702455252     1085.93774592963          12.23900032         15.074000359         13.358706116 
                47.8      478     154.567308363559    -20854.3572448074    -20912.8706896512     58.5134448437862    -819.818771895222     2464.55697854686     1.06760380805506    -20883.8240200773     -2968.1945440016    -604.833227171467      1113.5714554874          12.23900032         15.074000359         13.358706116 
                47.9      479     155.231891261198    -20854.3369725197    -20913.1020037768     58.7650312570895    -786.537249020148     2464.55697854686     1.06760380805506    -20882.6075088294    -2941.15502985693    -558.152714289227     1139.69599708571          12.23900032         15.074000359         13.358706116 
                  48      480     156.021198804969     -20854.316629297    -20913.3804630881     59.0638337911842    -748.931899377735     2464.55697854686     1.06760380805506    -20881.2355151873    -2900.93101382744    -510.143456232471     1164.27877192671          12.23900032         15.074000359         13.358706116 
                48.1      481     156.929008330112    -20854.2961968591    -20913.7036936353     59.4074967762001    -707.089404506295     2464.55697854686     1.06760380805506    -20879.7111364684     -2847.7996915641    -460.848245639287      1187.3797236845          12.23900032         15.074000359         13.358706116 
                48.2      482     157.947078058821    -20854.2756569196    -20914.0685571007     59.7929001810251    -661.062265585189     2464.55697854686     1.06760380805506    -20878.0362414381    -2782.03711806434     -410.26219347817     1209.11251478694          12.23900032         15.074000359         13.358706116 
                48.3      483     159.065294072058     -20854.254991383    -20914.4712066343     60.2162152513769    -610.885558490526     2464.55697854686     1.06760380805506    -20876.2120727341    -2703.97391071468    -358.344077295338     1229.66131253844          12.23900032         15.074000359         13.358706116 
                48.4      484     160.271854085987    -20854.2341833487    -20914.9071574294     60.6729740807388    -556.579765932321     2464.55697854686     1.06760380805506    -20874.2393496668    -2613.97711058667     -305.01914011189      1249.2569529016          12.23900032         15.074000359         13.358706116 
                48.5      485     161.553477946577     -20854.213216685    -20915.3713659808     61.1581492958025     -498.21611049374     2464.55697854686     1.06760380805506    -20872.1206160604    -2512.46865146314     -250.20185176704     1268.02217174896          12.23900032         15.074000359         13.358706116 
                48.6      486     162.895642056675    -20854.1920767617    -20915.8583195635     61.6662428018548    -435.806155131109     2464.55697854686     1.06760380805506    -20869.8562728923     -2399.8879333355    -193.736966911586     1286.20643485376          12.23900032         15.074000359         13.358706116 
                48.7      487      164.28282985495      -20854.17075106    -20916.3621316648     62.1913806048076    -369.420894665279     2464.55697854686     1.06760380805506     -20867.448859413     -2276.7326544284    -135.515068553822     1303.98503898639          12.23900032         15.074000359         13.358706116 
                48.8      488     165.698788841195    -20854.1492289706    -20916.8766390821     62.7274101114342    -299.084350118691     2464.55697854686     1.06760380805506     -20864.899228402    -2143.48187626033    -75.3769466089034     1321.60577251316          12.23900032         15.074000359         13.358706116 
                48.9      489     167.126789105031    -20854.1275023531    -20917.3955003518     63.2679979987405    -224.857052413061     2464.55697854686     1.06760380805506    -20862.2095473836    -2000.72400683223    -13.1539566972361     1339.30680629028          12.23900032         15.074000359         13.358706116 
                  49      490     168.549878076032    -20854.1055654974    -20917.9122921503     63.8067266529046    -146.812875144208     2464.55697854686     1.06760380805506    -20859.3824658892    -1849.06508611984     51.3120027500788     1357.31445793714          12.23900032         15.074000359         13.358706116 
                49.1      491     169.951128090574    -20854.0834151188    -20918.4206030077     64.3371878888951    -64.9999161411294     2464.55697854686     1.06760380805506    -20856.4197094159    -1689.11499386809     118.238741287517     1375.87650415718          12.23900032         15.074000359         13.358706116 
                49.2      492     171.313875349922    -20854.0610506047    -20918.9141240159     64.8530734111319     20.5159774799264     2464.55697854686     1.06760380805506    -20853.3236440967     -1521.5283694136     187.772031865168     1395.30426998821          12.23900032         15.074000359         13.358706116 
                49.3      493     172.621945727447    -20854.0384737946    -20919.3867340903     65.3482602957158     109.682444193514     2464.55697854686     1.06760380805506    -20850.0961538028     -1346.9032440417     260.083023577906     1415.86755304434          12.23900032         15.074000359         13.358706116 
                49.4      494     173.859862678961    -20854.0156895065    -20919.8325792041     65.8168896975637     202.328652164401     2464.55697854686     1.06760380805506    -20846.7433835672    -1165.99792848106     335.318001818569     1437.66588315569          12.23900032         15.074000359         13.358706116 
                49.5      495       175.0130425589    -20853.9927042514    -20920.2461450413     66.2534407898623     298.295263046424     2464.55697854686     1.06760380805506    -20843.2710670047    -979.588764158243     413.625200951432     1460.84935234608          12.23900032         15.074000359         13.358706116 
                49.6      496     176.067978423571    -20853.9695269568    -20920.6223273019     66.6528003451567     397.435837729377     2464.55697854686     1.06760380805506     -20839.684476509    -788.434104644637     495.153677749221     1485.58794008355          12.23900032         15.074000359         13.358706116 
                49.7      497     177.012412421786    -20853.9461683077    -20920.9564963037     67.0103279960438      499.65034448305     2464.55697854686     1.06760380805506     -20835.987218209    -593.259514560574     580.121527627924      1512.0890203818          12.23900032         15.074000359         13.358706116 
                49.8      498     177.835492126181    -20853.9226415679    -20921.2445569843     67.3219154164047     604.741838597408     2464.55697854686     1.06760380805506    -20832.1863841594    -394.854106168276     668.609979339877     1540.46964262062          12.23900032         15.074000359         13.358706116 
                49.9      499      178.52791164592    -20853.8989608115    -20921.4830005529      67.584039741438     712.489235880878     2464.55697854686     1.06760380805506     -20828.289934871     -194.03250034102     760.668781088308     1570.83142689535          12.23900032         15.074000359         13.358706116 
                  50      500     179.082045529546    -20853.8751418177     -20921.668956076     67.7938142583068      822.69421324817     2464.55697854686     1.06760380805506     -20824.305014457     8.36833412125802      856.38216151369     1603.33214410956          12.23900032         15.074000359         13.358706116 
Loop time of 1.85701 on 36 procs for 500 steps with 128 atoms

Performance: 2.326 ns/day, 10.317 hours/ns, 269.251 timesteps/s
-0.0% CPU use with 36 MPI tasks x no OpenMP threads

MPI task timing breakdown:
Section |  min time  |  avg time  |  max time  |%varavg| %total
---------------------------------------------------------------
Pair    | 0.00072503 | 0.45471    | 1.047      |  53.0 | 24.49
Neigh   | 0.30879    | 0.32855    | 0.34616    |   1.5 | 17.69
Comm    | 0.084601   | 0.67498    | 1.1509     |  43.4 | 36.35
Output  | 0.39057    | 0.39086    | 0.396      |   0.1 | 21.05
Modify  | 0.0031302  | 0.0073592  | 0.071079   |  16.6 |  0.40
Other   |            | 0.0005378  |            |       |  0.03

Nlocal:        3.55556 ave           8 max           0 min
Histogram: 4 6 4 2 0 5 5 8 1 1
Nghost:        310.056 ave         325 max         295 min
Histogram: 3 2 1 3 9 6 4 4 2 2
Neighs:        0.00000 ave           0 max           0 min
Histogram: 36 0 0 0 0 0 0 0 0 0
FullNghs:      261.167 ave         586 max           0 min
Histogram: 4 6 4 2 2 5 3 8 1 1

Total # of neighbors = 9402
Ave neighs/atom = 73.453125
Neighbor list builds = 500
Dangerous builds not checked
Total wall time: 0:00:01
