# Position data file
 
128 atoms
5 atom types
 
    0.000000000    12.239000000 xlo xhi
    0.000000000    15.074000000 ylo yhi
    0.000000000    13.358706000 zlo zhi
    0.000000000    -2.809764000     0.000000000 xy xz yz
 
Masses
 
1    26.982000000
2    12.011000000
3     1.008000000
4    14.007000000
5    15.999000000
 
Atoms
 
1 1 0    10.749700000     7.480750000     6.639270000
2 1 0    -0.001956940     0.005371090     0.049844200
3 1 0     1.678120000     6.609680000     5.822870000
4 1 0     7.781690000     8.425180000     7.637080000
5 1 0     9.148350000    14.102000000     0.853001000
6 1 0     0.249056000     1.040020000    12.554300000
7 1 0     4.708270000     7.528740000     6.672970000
8 1 0     3.321860000    15.065200000    13.307800000
9 2 0    11.584200000    12.541000000     1.404320000
10 2 0    -2.234990000     2.471050000    11.947600000
11 2 0    -0.831892000     5.069570000     5.223630000
12 2 0    10.185200000     9.910350000     8.322910000
13 2 0     0.178046000     8.621120000     4.298300000
14 2 0     9.308520000     6.557130000     9.038360000
15 2 0    10.619100000     1.081100000     2.189420000
16 2 0    -1.347870000    14.001800000    11.039200000
17 2 0     6.737510000    13.634000000     2.409030000
18 2 0     2.728230000     1.486810000    10.807200000
19 2 0     4.181880000     6.110960000     4.295060000
20 2 0     5.287830000     8.936580000     9.170640000
21 2 0     6.076480000    10.076000000     5.909080000
22 2 0     3.415230000     5.111760000     7.486200000
23 2 0     4.919310000     2.544970000     0.806362000
24 2 0     4.649270000    12.576400000    12.539500000
25 2 0    11.500800000    10.364600000     2.705750000
26 2 0    -2.129740000     4.606250000    10.533300000
27 2 0    -0.748964000     3.049710000     3.643740000
28 2 0    10.051800000    11.987000000     9.715290000
29 2 0     4.767250000    12.697600000     3.683930000
30 2 0     4.699920000     2.259170000     9.393160000
31 2 0     6.203000000     5.180500000     3.045820000
32 2 0     3.366460000    10.021600000    10.367000000
33 2 0     6.095960000    12.804200000     3.482810000
34 2 0     3.335000000     2.141030000     9.634170000
35 2 0     4.844170000     5.235680000     3.360140000
36 2 0     4.743890000     9.762850000    10.223500000
37 2 0    -0.042873400    11.405600000     2.081220000
38 2 0     9.462510000     3.747090000    11.410800000
39 2 0    10.868200000     3.890970000     4.527990000
40 2 0    -1.530050000    11.031100000     9.015150000
41 2 0     0.324436000     9.590460000     3.257910000
42 2 0     9.087180000     5.340000000     9.876470000
43 2 0    10.483300000     2.164860000     3.165440000
44 2 0    -1.162490000    12.882400000    10.159400000
45 2 0     6.858610000    11.934600000     4.326270000
46 2 0     2.623650000     3.020450000     8.747270000
47 2 0     4.138930000     4.348620000     2.527200000
48 2 0     5.448470000    10.539500000    11.165400000
49 2 0     1.546930000    10.026300000     2.739300000
50 2 0     7.863940000     4.915890000    10.373700000
51 2 0     9.308820000     2.427910000     3.833790000
52 2 0     0.046449200    12.542500000     9.633310000
53 2 0     5.906100000    11.188100000     4.942550000
54 2 0     3.573210000     3.918750000     8.322940000
55 2 0     5.071150000     3.701190000     1.750580000
56 2 0     4.509110000    11.406700000    11.694000000
57 3 0     0.635256000     7.920970000     7.574440000
58 3 0     8.900790000     8.498450000     5.554480000
59 3 0     7.351830000     0.058425900    12.194600000
60 3 0     2.169360000    14.709800000     0.926320000
61 3 0     2.846900000     8.787320000     6.058330000
62 3 0     6.717500000     6.312520000     7.028240000
63 3 0     8.189970000     1.175690000     0.149783000
64 3 0     1.360570000    13.917600000    12.723300000
65 3 0    10.426500000    10.113000000     2.597190000
66 3 0    -1.073500000     4.810860000    10.289500000
67 3 0     0.277817000     2.978770000     3.262400000
68 3 0     8.965800000    12.096100000     9.803070000
69 3 0     3.963180000    13.240400000     3.219650000
70 3 0     5.516780000     1.645030000     9.726840000
71 3 0     7.005540000     5.706430000     3.546150000
72 3 0     2.560380000     9.417510000     9.986970000
73 3 0     7.924170000    11.926300000     4.587140000
74 3 0     1.561040000     2.859180000     8.437920000
75 3 0     3.051970000     4.382040000     2.422470000
76 3 0     6.497360000    10.411100000    11.456700000
77 3 0     2.435520000     9.423480000     2.670380000
78 3 0     6.784350000     5.167500000    10.209800000
79 3 0     8.260960000     2.002870000     3.748850000
80 3 0     1.031420000    12.989800000     9.558230000
81 5 0     0.358651000     7.253610000     6.940670000
82 5 0     8.979230000     7.889070000     6.305070000
83 5 0     7.656710000    14.689100000    13.032400000
84 5 0     1.804350000     0.302873000     0.338593000
85 5 0     2.980340000     7.889830000     6.389450000
86 5 0     6.458930000     7.262560000     6.990880000
87 5 0     7.911350000     0.232496000     0.143403000
88 5 0     1.549340000    14.835100000    13.020200000
89 5 0     7.957140000    13.419100000     2.182150000
90 5 0     1.552440000     1.836010000    11.159000000
91 5 0     2.960480000     5.840620000     4.535440000
92 5 0     6.546110000     9.119880000     8.943110000
93 5 0    10.333100000    12.668900000     1.542800000
94 5 0    -0.969223000     2.369800000    11.967000000
95 5 0     0.364939000     5.294950000     5.018710000
96 5 0     8.957550000     9.722300000     8.451810000
97 5 0     1.252480000     7.937540000     4.526960000
98 5 0     8.252340000     7.288080000     8.970780000
99 5 0     9.635430000     0.284111000     2.095160000
100 5 0    -0.355083000    14.817400000    11.147700000
101 5 0     0.174418000    13.338700000     0.781559000
102 5 0     9.178210000     1.556640000    12.268000000
103 5 0    10.552400000     5.791630000     5.881480000
104 5 0    -1.279480000     9.175180000     7.633450000
105 5 0    -0.938141000     8.563950000     4.914790000
106 5 0    10.434500000     6.733830000     8.464110000
107 5 0    11.737500000     0.921071000     1.641720000
108 5 0    -2.428520000    14.085000000    11.653900000
109 5 0     7.244890000     9.896350000     6.305930000
110 5 0     2.232140000     5.490110000     7.261980000
111 5 0     3.704660000     2.329440000     0.425951000
112 5 0     5.864680000    12.782900000    12.940500000
113 5 0     4.958470000     9.492490000     6.210310000
114 5 0     4.477410000     5.681960000     7.021190000
115 5 0     5.947370000     1.839940000     0.524032000
116 5 0     3.575460000    13.202700000    12.865500000
117 5 0     5.969580000    14.505000000     1.849460000
118 5 0     3.464540000     0.596940000    11.367700000
119 5 0     4.881480000     7.028480000     4.809840000
120 5 0     4.486000000     8.187000000     8.553290000
121 5 0     1.323020000    11.228000000     2.097230000
122 5 0     8.091420000     4.020460000    11.469600000
123 5 0     9.534960000     3.550570000     4.666940000
124 5 0    -0.194619000    11.324700000     8.922420000
125 5 0     4.596270000    11.594200000     4.601450000
126 5 0     4.882660000     3.474280000     8.701160000
127 5 0     6.410540000     4.184580000     2.055260000
128 5 0     3.155700000    11.018400000    11.296000000
