# Position data file
 
296 atoms
5 atom types
 
    0.000000000    12.219990730 xlo xhi
    0.000000000    14.620910645 ylo yhi
    0.000000000    13.745848170 zlo zhi
    0.000000000    -2.565747966     0.000000000 xy xz yz
 
Masses
 
1    26.982000000
2    12.011000000
3     1.008000000
4    14.007000000
5    15.999000000
 
Atoms
 
1 1 0     7.839572285     8.044430005     6.024142469
2 1 0     2.899107374     0.805234444     0.899995330
3 1 0     1.811168418     6.295116718     7.823440215
4 1 0     6.441596594    13.517373275    13.023093013
5 1 0    -1.263157886     7.274037924     6.960119585
6 1 0    -0.174681651    -0.307954553     0.171446538
7 1 0     4.839251316     7.239433200     7.047109071
8 1 0     5.987814718    -0.163223088     0.117267505
9 2 0    -0.639569876     5.867968078     9.335849690
10 2 0     8.809640320    12.941656387    11.407260527
11 2 0    10.323764794     8.443037275     4.400123480
12 2 0     0.541707907     1.441581706     2.462529014
13 2 0     5.315028881     9.460161732     5.321892795
14 2 0     5.384041048     2.325916466     1.532314842
15 2 0     4.321969119     4.839007932     8.513320658
16 2 0     3.984352126    12.020781264    12.414205149
17 2 0    -1.539022854     2.541068552    13.076618735
18 2 0     9.520562318     9.685103968     7.588251933
19 2 0    10.749015207    11.793322469     0.850034985
20 2 0     0.017447875     4.756973255     6.211651144
21 2 0     4.673201808    10.552838044     4.571123349
22 2 0     5.817333646     3.586353269     2.127373256
23 2 0     4.903457217     3.762132316     9.336873015
24 2 0     3.534639230    10.788338113    11.772430339
25 2 0     4.485275883    13.486474182     2.419167056
26 2 0     6.251831535     6.131221332     4.720624477
27 2 0     4.988683242     0.910252472    11.631492986
28 2 0     3.407088037     8.046160600     9.402033244
29 2 0    -1.326597775     4.981344354    10.289362076
30 2 0     9.331087038    12.179430227    10.254675852
31 2 0    10.861884604     9.195218474     3.273524394
32 2 0     0.031454368     2.200833192     3.606015344
33 2 0    -1.597797308     3.441550272    11.869165161
34 2 0     9.565975744    10.590222752     8.709802456
35 2 0    10.985655183    10.373468683     1.330423536
36 2 0    -0.146009908     3.650258383     5.282352105
37 2 0     4.398896230    12.371783617     3.326048542
38 2 0     6.138542157     5.273178420     3.568476651
39 2 0     5.106054274     2.044727451    10.719083868
40 2 0     3.387240754     8.991978693    10.490272647
41 2 0     5.324797518    11.405170485     3.682234923
42 2 0     5.317500251     4.226320495     3.266255944
43 2 0     4.173227496     2.897527867    10.162751217
44 2 0     4.271267397     9.967517349    10.897464991
45 2 0    -0.636826767     4.094426510    11.153213925
46 2 0     8.617424204    11.210732041     9.518216923
47 2 0    10.076916079     9.811207287     2.339320785
48 2 0     0.772215760     3.122160456     4.379648167
49 3 0     6.608808735     8.343116038     8.058571271
50 3 0     1.759779504     0.988471396    12.745116452
51 3 0     2.840146536     6.748561943     5.727128646
52 3 0     7.844644093    13.674563639     1.423544768
53 3 0     8.802043143     6.148452300     7.208224555
54 3 0    -0.676950422    13.260747476    14.410983355
55 3 0     0.973456340     8.189526121     6.526354382
56 3 0     9.891772125     0.790610845     0.428390601
57 3 0     2.399394435    12.624487730     4.009522112
58 3 0     8.051571309     5.395521271     3.001964788
59 3 0     7.200626898     1.911450600    10.347450899
60 3 0     1.383449628     8.641805495    10.973457237
61 3 0     8.565777955     3.348673234    11.508790987
62 3 0    -0.593680019    10.830769320     8.560644739
63 3 0     0.873836018    10.764139366     1.687856739
64 3 0    10.007187193     3.279767496     5.508358988
65 3 0     6.368845474    11.363117042     3.411617515
66 3 0     4.451945107     3.884946745     3.818857237
67 3 0     3.101163405     2.886792906    10.303914324
68 3 0     5.326577150    10.009477129    10.680545815
69 3 0     0.434663914     4.000695159    11.231870266
70 3 0     7.545511885    11.051929580     9.516006981
71 3 0     8.998135102     9.841169595     2.338108050
72 3 0     1.767595978     3.503108114     4.179317942
73 3 0     1.271124918    12.384681804     8.353334804
74 3 0    12.276036920    12.745206029     9.304823383
75 3 0     7.526961349    12.869207741     7.855153994
76 3 0     8.008419695    11.608387499     7.086559665
77 3 0     0.889860714     7.876547114     2.351654079
78 3 0     0.579830774     6.376371759     2.570809696
79 3 0     8.734989429     7.456560325     9.166960179
80 3 0     8.699069269     6.298872004    10.213538559
81 3 0     6.081722935     7.919382107    11.951740440
82 3 0     5.945465526     6.194789961    12.077258824
83 3 0     9.906701385    14.348651685     3.752729478
84 3 0    10.021121029    12.788872591     3.820270910
85 3 0     0.927933574     2.233711894     9.175300922
86 3 0     0.106642157    14.955373098     8.383607563
87 3 0     3.900962586     1.323567401     5.966493160
88 3 0     4.299308629     2.564506394     6.878126399
89 3 0     1.309953269     6.746844733    12.909640778
90 3 0     0.088496577     7.665949654    13.985262533
91 3 0    10.848448773    14.081138876     7.838488587
92 3 0    11.298283664     0.266236194     9.579053036
93 3 0     0.721319519     2.029647331     6.573509256
94 3 0     2.104521796     1.475722396     7.030849032
95 3 0     7.691084045     8.442766688    10.996345690
96 3 0     7.416834716     9.335969450    12.341398743
97 3 0     2.513329184    11.358787549     6.265688308
98 3 0     1.684864590    12.684783664     6.371774218
99 3 0     9.277840664     1.689165719     8.475984396
100 3 0    10.155152677     2.436694983     9.517468894
101 3 0     3.503840053    13.489188590     9.392002460
102 3 0     3.317753697    12.086980048     8.729206152
103 3 0     0.674918240     1.376276294    10.515814244
104 3 0    11.830205648    15.283501191    12.089673052
105 3 0     3.760278068     8.702748527     0.356605154
106 3 0     5.293741137     7.132355150    13.322472059
107 3 0     6.866953473     4.049343377     6.571156094
108 3 0     6.558161145     2.637900963     7.001266925
109 3 0    11.146389536    13.422579859     6.285447297
110 3 0     9.620724078    13.126120124     6.947922805
111 3 0    10.527165454     8.503511063    11.880292492
112 3 0     9.963557712     7.408682987    10.939689733
113 3 0    10.457002905    10.651191327    11.149852013
114 3 0     9.450031386    10.265020975    12.349619212
115 3 0     6.317340766     4.666343769    13.137771277
116 3 0     7.388924009     4.794601039    11.996570425
117 3 0     5.346492671    12.888913578     9.271277580
118 3 0     6.679362950    13.207810512    10.089202386
119 3 0     2.153679141     1.296256395     4.555668331
120 3 0     3.009532535     0.234624314     3.847330122
121 3 0     8.179527518     1.720195268     1.229438702
122 3 0     9.417569198     1.461056389     2.184114937
123 3 0    -0.882188256     6.360592694     3.933071339
124 3 0    10.845852143     5.556710008     2.645051233
125 3 0     6.477918429     9.952341082     0.784910497
126 3 0     7.969848958    10.561891143     0.516128500
127 3 0    11.535985014    10.164918615    12.710912740
128 3 0    10.759391988     8.613737610     0.358153829
129 3 0     7.250394109     6.805023917     1.667478886
130 3 0     7.585775500     8.341214370     0.929090061
131 3 0     4.036554416     6.234086269    11.565213863
132 3 0     2.513218330     5.874606003    11.415824321
133 3 0     4.914536188     1.632703399     3.962594014
134 3 0     5.968943424     2.276715308     4.945205562
135 3 0    10.121199930     5.191455590    13.575870218
136 3 0     9.486475789     3.856576415     1.165165652
137 3 0    12.371173873    11.788126166     5.261899386
138 3 0     0.134092858    10.307647913     4.790164164
139 3 0     9.246424597     2.848992549     3.538743165
140 3 0     7.785100659     3.198919267     3.148455269
141 3 0     5.569915726    11.230846663     7.466025113
142 3 0     5.248260445    10.710548109     8.867848663
143 3 0     1.131022590    12.416437565    10.881931535
144 3 0    12.252169163    13.943130123    11.366964576
145 3 0     4.660107644     9.464229658     2.088558338
146 3 0     4.818838179    10.909351453     1.463427223
147 3 0     8.145045284     4.328589475     8.465750955
148 3 0     9.349330623     4.214845194     7.477289262
149 3 0     2.512939639    11.072348020     0.554625109
150 3 0     0.910340062    10.434809788    12.789895125
151 3 0    -0.490964161    13.718402309     4.420415148
152 3 0     0.653263738    14.420267245     5.415851310
153 3 0     9.818439254     2.700006810    14.821449277
154 3 0     9.891000835     1.072530264    11.868141824
155 3 0     7.510732339    12.764181489     5.358657874
156 3 0     6.125540939    13.399301518     5.202150573
157 3 0     0.631104741     6.562547423     0.716194462
158 3 0     1.096006850     5.233517988    12.909789583
159 3 0     1.409982593    12.741262965    12.363166059
160 3 0     2.726983313    11.701368599     2.073117334
161 3 0     3.078701914     4.178647223    12.014596150
162 3 0     3.588121369     3.550977942    13.284460136
163 3 0     2.453747360     0.845405728     9.546480052
164 3 0     3.564060282    15.448065542     8.414054898
165 3 0     8.962715973    10.627840763     4.605866999
166 3 0    10.302789764    11.188501635     5.163972909
167 3 0     6.339156477     0.145637781     8.451046543
168 3 0     5.499664702     0.962303687     7.329062938
169 3 0     7.832422810    -0.146603223     4.519814500
170 3 0     8.220746595     1.402464637     4.263074831
171 3 0     3.021784671     8.784220092     3.560602541
172 3 0     3.374408615     7.983584690     2.238234698
173 3 0     8.956938679     0.861718229     6.051435405
174 3 0     7.928801626    15.600463185     7.209880550
175 3 0     3.311913960     6.440394967     3.731128191
176 3 0     3.206641907     5.244850755     4.727832852
177 3 0     2.563333880     5.329112320     1.491912816
178 3 0     2.957969465     3.870472346     1.131074442
179 3 0    10.733628859     6.558619630     0.517992855
180 3 0    10.954032001     4.050244238     0.749613614
181 3 0     3.930020509    12.764961732     6.656860617
182 3 0     5.222784855    13.427350420     7.238634097
183 3 0     9.374344256     7.217931251     1.050331220
184 3 0    10.389129550     6.839362732    12.533790849
185 4 0     3.360844833    10.859999619     4.707742840
186 4 0     6.926441488     4.259302146     1.711178304
187 4 0     6.219421816     3.488808311     9.370412050
188 4 0     2.281342866    10.324265562    11.906383795
189 4 0     3.210937412    11.997332752     3.910087925
190 4 0     7.113345955     5.406935205     2.571089228
191 4 0     6.312103083     2.415702548    10.213122906
192 4 0     2.219317687     9.215316351    11.119540195
193 4 0     9.410083873     3.923973104    11.440829790
194 4 0    -1.459616869    11.105171653     9.032253900
195 4 0     0.023802319    10.222502448     1.969451681
196 4 0    10.894853952     3.032056805     5.053279970
197 4 0     9.553685816     4.889802139    10.468434512
198 4 0    -1.550788395    12.115592963     9.967922812
199 4 0    -0.008261960     9.414711029     3.045880194
200 4 0    10.962888917     2.143526294     4.003388217
201 5 0     6.536770716     9.171216695     5.071494180
202 5 0     4.153420114     2.061965361     1.697276483
203 5 0     3.054349810     4.886627574     8.385282485
204 5 0     5.195235483    12.346233011    12.237713106
205 5 0     6.612495415     7.668987651     7.355811261
206 5 0     1.681523396     0.307108954    13.443650424
207 5 0     3.055660920     6.962739032     6.669648391
208 5 0     7.740994299    14.056040323     0.535432245
209 5 0     0.558523617     5.574434601     9.046646516
210 5 0     7.549599670    12.837334242    11.615905778
211 5 0     9.086815151     8.597262171     4.638264904
212 5 0     1.795875302     1.521247126     2.250706310
213 5 0     9.142125637     7.042746160     6.914153980
214 5 0     1.637928285    14.188618642     0.366375735
215 5 0     0.541791302     7.552434826     7.119112838
216 5 0     7.717249175    -0.013270289    13.739344596
217 5 0    -0.336017835     2.071534440    13.387975975
218 5 0     8.404502410     9.595401761     6.969225532
219 5 0     9.569251880    12.054942489     0.454519649
220 5 0     1.210133464     5.019799281     6.545026444
221 5 0    -2.172293579     3.315066970    14.097718314
222 5 0    10.615995241     9.116130903     7.288758227
223 5 0    11.749664687    12.565644664     0.806411306
224 5 0    -1.035679836     5.365595953     6.601281954
225 5 0     3.423273973    14.186885246     2.288744904
226 5 0     7.417732713     6.608358865     4.922365655
227 5 0     6.091177159     0.316892276    11.836218001
228 5 0     2.295212491     7.489346934     9.156422918
229 5 0     4.559683722     8.895072360     6.159296894
230 5 0     6.259541071     1.578012374     0.977587260
231 5 0     5.161914159     5.606744722     7.963183123
232 5 0     3.132728793    12.678015573    13.110420097
233 5 0     5.569839367    13.682708274     1.791978165
234 5 0     5.221541605     6.323638632     5.427669194
235 5 0     3.879327072     0.573988497    12.160087154
236 5 0     4.482317848     7.960249338     8.745353736
237 5 0    -1.289197275     6.847201435     8.833566555
238 5 0     9.615530875    13.590884993    12.133184326
239 5 0    11.093924408     7.650595145     5.051710869
240 5 0    -0.300729167     0.838024942     1.713801759
241 5 0     1.007118170    12.917111737     9.130288161
242 5 0     8.057445254    12.587463705     7.067352053
243 5 0     1.176695597     6.985152039     2.018653553
244 5 0     8.507587277     7.293680933    10.106350749
245 5 0     5.478366364     7.116959494    12.265566575
246 5 0    10.510796941    13.591544445     3.494657969
247 5 0     1.317377931     1.975438768    10.030411168
248 5 0     3.900344685     1.667394509     6.905911829
249 5 0     1.137878871     5.998722065    12.280229345
250 5 0    11.363395937     0.390077427     8.593023280
251 5 0     1.139791103     1.252374722     6.995580497
252 5 0     7.014393008     8.960878714    11.518968945
253 5 0     2.298082562    12.117645930     6.886270321
254 5 0     9.272996142     2.046101419     9.414667187
255 5 0     3.853957842    12.520974776     9.418041980
256 5 0    11.902735205     0.268730536    11.190324624
257 5 0     3.590030063     7.739869206     0.512129924
258 5 0     6.245879218     3.314483088     6.360367710
259 5 0    10.603940514    13.269151538     7.113088652
260 5 0    10.664035902     7.515730057    11.670232670
261 5 0    10.254952790     9.989406252    11.862546087
262 5 0     6.429316277     4.808355502    12.164147835
263 5 0     6.282274033    13.317958107     9.191436292
264 5 0     2.803529260     0.589213762     4.748038668
265 5 0     9.135266805     1.932090250     1.371504769
266 5 0    11.556019903     5.617260323     3.316271388
267 5 0     7.410799304     9.765764178     0.455886044
268 5 0    10.913353935     9.605710014     0.061797901
269 5 0     7.691515378     7.333792770     0.934849804
270 5 0     3.428670116     5.651716272    11.073442938
271 5 0     5.686431779     1.428921458     4.516827411
272 5 0     7.510872200     4.139847024     0.578014182
273 5 0    12.035430931    10.896683466     5.514770568
274 5 0     8.396844628     3.180508297     3.908464376
275 5 0     5.896567461    10.601692498     8.149189582
276 5 0     0.670277318    12.576768956    11.737668318
277 5 0     4.952536748     9.961917012     1.272172305
278 5 0     8.464665470     4.612184065     7.580515893
279 5 0     2.681912121    10.092118747    -0.432431038
280 5 0     0.197910488    13.579649502     5.193363991
281 5 0     9.714824349     1.441202374    12.769604826
282 5 0     6.971735958    13.280476465     4.710606046
283 5 0     0.268319861     6.154244470    -0.167328348
284 5 0     2.219230078    11.788956178     1.249071659
285 5 0     2.825211063     3.476529985    12.670478443
286 5 0     3.213355213     0.315896887     9.173367203
287 5 0     9.422478868    11.472372674     4.796012460
288 5 0     6.385899098     0.852009806     7.740607478
289 5 0     8.617535924     0.515851556     4.440396344
290 5 0     3.736128719     8.291253323     3.110702401
291 5 0     8.884452869     1.145139149     7.004811204
292 5 0     2.669191808     5.869625323     4.210301997
293 5 0     3.215281463     4.800594498     0.995864658
294 5 0    10.163814145     4.551105014     1.035592166
295 5 0     4.905568993    12.868828103     6.507238463
296 5 0    10.362393433     7.343141472     0.975510941
