# Position data file
 
287 atoms
5 atom types
 
    0.000000000    12.239000320 xlo xhi
    0.000000000    15.074000359 ylo yhi
    0.000000000    13.358706116 zlo zhi
    0.000000000    -2.809763788     0.000000000 xy xz yz
 
Masses
 
1    26.982000000
2    12.011000000
3     1.008000000
4    14.007000000
5    15.999000000
 
Atoms
 
1 1 0    -1.433107031     7.367668364     6.598515634
2 1 0    -0.100206470     0.171843170     0.283638569
3 1 0     1.663088759     6.498374405     5.921143931
4 1 0     7.741320032     8.302564254     7.406648918
5 1 0     9.191334228    13.952284402     0.614587973
6 1 0     0.398903767     0.879622498    12.903443480
7 1 0     4.677011492     7.495325432     6.730693149
8 1 0     6.170252743    -0.153803477     0.043960711
9 2 0    11.520598256    12.564137447     1.456158589
10 2 0    -2.049021031     2.463569229    12.028737062
11 2 0    -0.895101399     5.106605876     5.169509457
12 2 0    10.251228923     9.759914724     7.894838592
13 2 0     0.202856686     8.458202379     4.305182291
14 2 0     9.197046541     6.467218869     9.047605482
15 2 0    10.464846654     1.242761332     2.186378850
16 2 0    -1.942552425    13.894330643    10.410014531
17 2 0     6.912436328    13.599363139     2.435477479
18 2 0     2.763085779     1.380693434    11.154152319
19 2 0     4.060542527     5.930359327     4.415708678
20 2 0     5.392023974     8.993246111     9.064344167
21 2 0     6.022720155     9.995513763     5.802703491
22 2 0     3.450699239     4.988604674     7.684277902
23 2 0     4.940153198     2.312539766     1.120668267
24 2 0     4.595408855    12.399259238    12.558349439
25 2 0    11.611578175    10.222153487     2.488948055
26 2 0    -1.988530783     4.598526582    10.580190321
27 2 0    -0.988266290     3.296093953     3.414938411
28 2 0    10.030495180    11.711454889     9.465639782
29 2 0     4.934667590    12.770551316     3.748257756
30 2 0     4.707094079     2.546419732    10.037053691
31 2 0     6.025127250     5.097433915     3.117164333
32 2 0     3.523216087    10.349648128     9.964691255
33 2 0     6.282144656    12.854795943     3.512811755
34 2 0     3.367272107     2.296225919    10.181861576
35 2 0     4.711454284     5.038714158     3.481691668
36 2 0     4.803643819     9.838113314    10.124144510
37 2 0    -0.082904267    11.417302060     2.092062724
38 2 0     9.670180257     3.665760869    11.390273599
39 2 0    10.692568218     4.195138448     4.259263114
40 2 0    -1.543975757    10.956326420     8.542385536
41 2 0     0.302570552     9.650462260     3.420646220
42 2 0     9.178690216     5.426766854    10.074852765
43 2 0    10.178818319     2.448449625     2.938634296
44 2 0    -1.416428360    12.922528024     9.602375327
45 2 0     6.913169621    11.883182820     4.340612915
46 2 0     2.665111670     3.146068425     9.266675531
47 2 0     4.125833310     3.884426612     2.896917321
48 2 0     5.328100848    10.334860233    11.304419292
49 2 0     1.371994401    10.501586219     3.466460067
50 2 0     8.026469128     4.981348635    10.656860695
51 2 0     9.018304526     2.934060201     3.463211766
52 2 0    -0.274450397    12.744880298     8.801386147
53 2 0     5.912984843    11.219190937     4.999594585
54 2 0     3.607493309     3.895216021     8.639847656
55 2 0     5.092312324     3.356432285     2.087992377
56 2 0     4.261267726    11.055385171    12.009937062
57 3 0     0.674897620     7.198331609     7.939021695
58 3 0     8.688212061     7.729399778     5.257856409
59 3 0     7.443381096     0.121008329    12.144051048
60 3 0     1.936390840    15.092016000     1.438582230
61 3 0     2.580642713     8.666461272     6.521525428
62 3 0     6.770886930     6.241215405     6.924869869
63 3 0     8.217831047     1.013534879     0.392347078
64 3 0     1.359984961    13.728170273    13.226421632
65 3 0    10.654651469     9.838288161     2.138723379
66 3 0    -0.928047459     4.714142720    10.359675706
67 3 0     0.049351585     3.292048252     3.097906985
68 3 0     9.103794698    11.439673389     9.978500430
69 3 0     4.099371051    13.310565886     3.314959264
70 3 0     5.577588702     2.089887861    10.490693031
71 3 0     6.754895914     5.865410990     3.336430070
72 3 0     2.834148723    10.242088111     9.130651289
73 3 0     7.976467771    11.687575899     4.402339272
74 3 0     1.606825318     3.206963170     9.047758631
75 3 0     3.077110582     3.596297258     2.935462970
76 3 0     6.372937696    10.264266600    11.624397997
77 3 0     2.281467257    10.417435370     4.050020984
78 3 0     7.005084790     5.347535238    10.596801959
79 3 0     8.001516816     2.595390443     3.325758417
80 3 0     0.602171545    13.355046290     8.593684254
81 3 0     7.538782084    11.092630607     7.718140350
82 3 0     7.382557630    12.676992575     7.895962559
83 3 0    12.088875931     7.184472793     1.387835782
84 3 0    11.883130490     6.228904999     2.614364484
85 3 0     6.057182559     8.471663769    12.134495175
86 3 0     5.124828190     7.244295113    12.045277409
87 3 0    10.006059751    13.451430890     4.538774040
88 3 0    10.877823736    14.083669228     3.459606531
89 3 0     4.714875079    14.605201211     9.360776963
90 3 0     4.755870043     0.608171976     8.173659012
91 3 0     2.400721035     4.963286101     1.069448468
92 3 0     1.861029215     6.165892671     1.864229828
93 3 0    10.581439935     1.965103486     8.881284310
94 3 0     9.499883463     2.355972669     7.779925073
95 3 0     2.814191855    11.169615236     6.920371348
96 3 0     1.467179833    11.089419785     6.201664559
97 3 0    11.351591369    -0.013914191    11.004502168
98 3 0    12.966197788     0.062900195     9.854321971
99 3 0     2.660348113     9.038304634     0.365296886
100 3 0     2.530912763     7.542716766     0.881099788
101 3 0     3.776673601     1.528458026     6.253073845
102 3 0     5.090468449     2.332512549     6.421575076
103 3 0    10.329631260    14.181898771     6.686132303
104 3 0     9.958510699    15.719441739     6.879467108
105 3 0    11.157250078     3.768112958     8.213571827
106 3 0    -0.123406328     4.908057700     7.698559037
107 3 0     7.661124752     7.532380258    12.912896403
108 3 0     8.831945300     8.632193599    12.772793691
109 3 0     0.828612097     8.459025480     9.665960342
110 3 0     2.291083620     7.878392031     9.265598698
111 3 0    10.551735317     9.156886421    10.535660250
112 3 0    10.839533128     7.939957595     9.485205414
113 3 0     6.030944648    12.109327306     9.106325699
114 3 0     5.900363154    12.707991134    10.590992395
115 3 0     8.521192563     6.296415209     1.356537072
116 3 0     8.898646930     5.542638053     2.691103504
117 3 0     2.236331354     1.186807131     4.339599859
118 3 0     2.295828161     2.747674902     4.686251364
119 3 0     9.986709699     6.959520916    12.624372875
120 3 0    10.946426443     7.469868139    11.492829689
121 3 0     8.467813578     8.767599113     0.758818617
122 3 0     8.451589994     9.663904475     2.039677208
123 3 0     5.322255764     0.346976766     3.206829750
124 3 0     4.172087631     0.994545677     4.057621482
125 3 0    12.844061167     3.711153828    11.817825801
126 3 0     1.011174893     5.291494399    11.757992811
127 3 0     3.931590317     3.894345147    13.535522169
128 3 0     2.623373939     4.301798159    11.705046844
129 3 0     5.667368856     3.197381986     4.559712847
130 3 0     6.327909043     4.060602920     5.706206366
131 3 0     5.901370880     8.120384906     0.824959956
132 3 0     6.524888977     6.710342083     0.591067164
133 3 0     3.783334200     6.007727736    11.213009980
134 3 0     3.031017096     7.226930244    11.775141693
135 3 0     5.905603654     0.676534569     6.508668248
136 3 0     7.040529660    15.232009806     5.490784956
137 3 0    10.649880524     4.255948227    -0.095010924
138 3 0    10.439438677     5.191046587     1.152197481
139 3 0     1.054634750    13.607441777     5.889618038
140 3 0    12.297711298    13.028708486     4.817285400
141 3 0    10.699046982    10.224707066     4.996783134
142 3 0     9.182454852     9.924658964     5.216199333
143 3 0     1.338493559     2.617260647     1.118504153
144 3 0     0.370522410     3.875079728     1.089775409
145 3 0    11.692678691     1.708024451     4.420621094
146 3 0    11.327920311     0.470650092     5.354440295
147 3 0     7.851531674     4.436174710     8.004725888
148 3 0     6.313279801     4.614053386     7.904594488
149 3 0     1.659564405     9.788448807    13.045079165
150 3 0     0.280638963    10.586966388    12.012778569
151 3 0     0.057988816    12.240578872    12.579302660
152 3 0    13.521324845    12.570585762    11.556246213
153 3 0     6.471587926     9.717460519     2.662681668
154 3 0     4.890894951     9.454328797     2.932376414
155 3 0     0.415865754     6.894105877    12.606762679
156 3 0     1.141008782     7.158629444    11.235250598
157 3 0     5.939242273     2.932356386    13.014735412
158 3 0     6.522993296     2.484827182    12.879986734
159 3 0     1.586714548     1.304106411     6.481033860
160 3 0    12.509124314     0.493367114     6.833756757
161 3 0     7.916316004     0.506753354     9.557749982
162 3 0     8.512001988    16.954839985     9.769892352
163 3 0     0.521755633     1.422831140     8.460307712
164 3 0     0.250947127     1.979654041     9.943569777
165 3 0     7.551797211    -0.367619133     7.640516053
166 3 0     6.988137600    14.136501733     8.948755079
167 3 0     5.302026432     9.941226840     1.052382822
168 3 0     3.738256345    10.452242504    12.772679207
169 3 0     8.683375965     0.061040596     3.517599504
170 3 0     8.898127164     0.694280919     4.935331785
171 3 0     3.221396824     8.553452048     2.295326019
172 3 0     3.157827625     8.397187615     3.876733165
173 3 0     8.635807777     3.007586861     6.014519998
174 3 0     7.920904144     1.649071526     6.494009278
175 3 0     9.049393086    10.264641538    13.137251647
176 3 0    11.078821148     9.904005762    12.295077499
177 3 0     1.859702113    14.116849122     3.798797600
178 3 0     0.912625711     0.223356335     3.573602552
179 3 0    10.557372414    12.841167111    13.547716806
180 3 0    10.206800042    11.510044075    12.640484091
181 3 0     3.998361427    13.061614644     6.970473017
182 3 0     4.103271476    12.731891978     8.483112576
183 3 0     9.066164006    12.694909959     7.288978429
184 3 0     9.650495362    11.919899842     5.989403409
185 3 0     7.178653034     7.811287005     3.196970967
186 3 0     8.705435124     7.724157975     3.056565352
187 5 0     0.300786446     6.896682918     7.068946997
188 5 0     9.033093006     7.722864114     6.180825874
189 5 0     7.713619729    14.772780208    12.981897484
190 5 0     1.714628180     0.284660620     0.508960527
191 5 0     2.865098571     7.725200687     6.611124290
192 5 0     6.478296700     7.176990189     6.797312232
193 5 0     7.982474819     0.139777915     0.050493438
194 5 0     1.565538635    14.679364616    13.474099724
195 5 0     8.067622742    13.257518325     2.022364702
196 5 0     1.595187562     1.676612395    11.588323359
197 5 0     2.820628824     5.743149712     4.641530052
198 5 0     6.618073861     9.146595433     8.779620166
199 5 0    10.313647672    12.495611136     1.102707907
200 5 0    -0.779018310     2.282564568    12.068720462
201 5 0     0.353310960     5.302289857     5.022935617
202 5 0     9.028400178     9.467385525     8.133505700
203 5 0     1.309692203     7.964616037     4.678673958
204 5 0     8.087162276     7.030919876     8.794743260
205 5 0     9.583131060     0.321962209     2.048760549
206 5 0     0.959702485    14.422774192    10.543331659
207 5 0     0.005028590    13.628721113     1.286856858
208 5 0     9.328655928     1.678493746    12.546470596
209 5 0    10.565400679     5.652713963     6.021670995
210 5 0    -1.149437732     9.095084358     7.204002906
211 5 0    -0.945847511     8.070033228     4.728495132
212 5 0    10.307152820     6.775254304     8.467717214
213 5 0    11.648783447     1.163153930     1.703244182
214 5 0    -2.795709902    14.216181079    11.173699374
215 5 0     7.216641391     9.656140786     6.134791445
216 5 0     2.304565023     5.153428488     7.168570962
217 5 0     3.715421774     2.020851187     0.872794959
218 5 0     5.813955797    12.790266898    12.564188563
219 5 0     4.976300975     9.333093824     6.077115165
220 5 0     4.495979459     5.685986795     7.451312572
221 5 0     5.967174777     1.779534481     0.570563494
222 5 0     3.627659415    13.078742290    13.009482761
223 5 0     6.237895467    14.583992378     1.953014754
224 5 0     3.449775323     0.386146177    11.560291914
225 5 0     4.814527960     6.781749712     4.980413855
226 5 0     4.575199934     8.183817617     8.504060118
227 5 0     1.193243424    11.587173772     2.642571757
228 5 0     8.279586817     3.879805334    11.463468728
229 5 0     9.270713691     4.074297170     4.258924014
230 5 0    -0.331164276    11.537890189     8.171948375
231 5 0     4.667150382    11.782167069     4.674923207
232 5 0     4.892551193     3.564249245     9.119420299
233 5 0     6.341068382     4.018265529     2.293186987
234 5 0     3.162928692    11.160819420    10.950678253
235 5 0     6.898962727    11.825510372     7.717293138
236 5 0     0.288906550     6.816191828     2.196874583
237 5 0     5.962837784     7.577371382    12.524684550
238 5 0    10.790654158    13.265976860     3.981749313
239 5 0     5.260013617     0.202063739     8.918117238
240 5 0     2.657265208     5.875211720     1.338361840
241 5 0     9.819117155     2.570786678     8.699835447
242 5 0     2.166327926    10.508100208     6.571712807
243 5 0    12.154247555    14.753243069    11.540203011
244 5 0     2.372029042     8.485442474     1.137043708
245 5 0     4.512326500     1.662730287     6.884923262
246 5 0    10.716122740    15.108156746     6.779967765
247 5 0    12.090839104     3.977937003     7.999571790
248 5 0     8.581615736     7.751370064    13.195090152
249 5 0     1.348684049     7.658089020     9.426876443
250 5 0    11.228030213     8.558972134    10.158915750
251 5 0     5.540478511    12.757798419     9.684889775
252 5 0     9.232766063     6.170396791     2.019432643
253 5 0     2.544459406     1.864268319     5.011302646
254 5 0    10.865199371     6.779861857    12.197607565
255 5 0     8.697739643     9.661573618     1.097152645
256 5 0     5.104556978     0.723331269     4.086820229
257 5 0     1.170956572     4.374170623    11.379143764
258 5 0     3.665240403     4.383585181    11.734307993
259 5 0     6.142107367     3.150357461     5.406375636
260 5 0     6.449888915     7.411163493     1.269753853
261 5 0     3.815381902     6.999926471    11.222475074
262 5 0     6.869072743     0.457745133     6.418628042
263 5 0    11.089059842     4.608740250     0.697626489
264 5 0     0.985270901    12.929399434     5.190980735
265 5 0     9.817941261    10.644196324     5.046977252
266 5 0     1.261357756     3.549769367     1.383021468
267 5 0    11.863855034     0.753861104     4.553515301
268 5 0     7.136143402     4.617375929     7.373644112
269 5 0    -0.153770568     9.737669080    12.235915752
270 5 0     1.076059269    12.262798389    12.454949229
271 5 0     5.595432084    10.129605052     2.579136671
272 5 0     1.287025139     6.805550469    12.144629183
273 5 0     6.785494490     4.769527142    -0.262415563
274 5 0    13.433281013     0.668361960     7.121867409
275 5 0     7.771893560     1.315443034    10.096975763
276 5 0    -0.072382315     1.357147456     9.264534103
277 5 0     7.835119945    14.155866167     8.433950097
278 5 0     5.309441113     9.539422633     0.117613789
279 5 0     8.474288746    -0.059644914     4.473382607
280 5 0     3.798157667     8.515195167     3.153662714
281 5 0     8.821088737     2.106716039     6.348327690
282 5 0     9.460292925    10.124346239    12.266981158
283 5 0     1.832183790    -0.085885040     3.326305582
284 5 0    10.925184075    12.131037291    12.991930914
285 5 0     3.485744998    12.692535342     7.710008316
286 5 0     9.543791007    12.812008104     6.450983534
287 5 0     8.007509946     8.143249238     3.612808263
