# Position data file
 
284 atoms
5 atom types
 
    0.000000000    12.239000320 xlo xhi
    0.000000000    15.074000359 ylo yhi
    0.000000000    13.358706116 zlo zhi
    0.000000000    -2.809763788     0.000000000 xy xz yz
 
Masses
 
1    26.982000000
2    12.011000000
3     1.008000000
4    14.007000000
5    15.999000000
 
Atoms
 
1 1 0    -1.578602483     7.297853669     6.545175071
2 1 0     0.289058391     0.222131919     0.392752165
3 1 0     1.516485454     6.475075312     5.819228489
4 1 0     7.653370498     8.147850101     7.297708910
5 1 0     9.396959365    13.972114511     0.639683226
6 1 0     0.340653882     1.020800797    13.290383401
7 1 0     4.495898550     7.642199528     6.492555906
8 1 0     6.210877322     0.186903775     0.120569388
9 2 0    11.823647147    12.701844915     1.585739774
10 2 0    -1.861358000     2.710113876    12.305696086
11 2 0    -1.001566220     5.004247440     5.166795112
12 2 0    10.071388196     9.617693733     7.953285132
13 2 0    -0.018622851     8.361490955     4.222792001
14 2 0     9.192854907     6.351847790     8.973424231
15 2 0    10.447141540     1.114505159     2.178902238
16 2 0    -1.973187133    14.115813071    10.050167359
17 2 0     7.081794310    13.637107917     2.380982904
18 2 0     2.693963370     1.432315151    11.007335488
19 2 0     3.928350353     6.157967758     4.261841848
20 2 0     5.289954274     8.784498099     8.901477717
21 2 0     5.981549516    10.096127940     5.799420977
22 2 0     3.389241892     4.932888765     7.388642657
23 2 0     5.256781791     2.642220217     1.049884010
24 2 0     4.811949940    12.056493422    12.655491190
25 2 0    11.571360343    10.342702377     2.548718923
26 2 0    -1.859763700     4.791943847    10.695410230
27 2 0    -1.034450141     3.087001072     3.544647677
28 2 0     9.735199604    11.772724342     9.190380815
29 2 0     6.471615965    12.884767967     3.477895447
30 2 0     3.233912133     2.284299308     9.927012385
31 2 0     4.708879200     5.255007318     3.453802510
32 2 0     4.831020323     9.583911982     9.990926910
33 2 0     0.063990571    11.454755603     2.200144522
34 2 0     9.869870826     3.893211030    11.594251598
35 2 0    10.619917166     3.994225268     4.349255430
36 2 0    -1.758961712    10.868259088     8.498090419
37 2 0     0.192814450     9.516213135     3.335161879
38 2 0     9.244655775     5.514126135    10.163096325
39 2 0    10.164519130     2.212183881     3.079673357
40 2 0    -1.660417804    12.900827706     9.323407771
41 2 0     6.987956575    11.864856642     4.231140507
42 2 0     2.617448216     3.102818483     9.019041613
43 2 0     4.268014113     4.171928312     2.772624834
44 2 0     5.543817319    10.272992447    10.932662600
45 2 0     1.417161841    10.124225099     3.343079063
46 2 0     8.150294394     5.112501622    10.861364627
47 2 0     8.998273568     2.610702386     3.637640289
48 2 0    -0.441135988    12.600062892     8.761168054
49 2 0     5.901955296    11.311190608     4.980968315
50 2 0     3.649786210     3.834351228     8.338709628
51 2 0     5.388128828     3.665527418     2.044467253
52 2 0     4.571299604    11.014592748    11.683453714
53 2 0     4.787485398    12.044211506     4.673341385
54 2 0     4.842749943     3.392921227     8.850324643
55 2 0     6.479636031     4.396374006     2.395914707
56 2 0     3.334723985    10.716631767    11.157987341
57 3 0     0.530277073     7.233647486     7.858886864
58 3 0     8.673097307     7.985108548     5.190099639
59 3 0     8.243040418    14.399703810    12.089442776
60 3 0     2.290106643     0.703066183     2.198191916
61 3 0     2.349786654     8.713749043     6.329358199
62 3 0     6.606317034     6.635676761     5.783218573
63 3 0     5.434029493     0.257412403    12.319811288
64 3 0     3.800040241    13.664734427     0.879228811
65 3 0    10.551210865    10.141137204     2.234465592
66 3 0    -0.818485448     4.888050915    10.384754299
67 3 0     0.011773037     3.113046603     3.265936393
68 3 0     8.730050065    11.657882515     9.567809041
69 3 0     8.027416753    11.544711339     4.243784441
70 3 0     1.560741319     3.242606570     8.810219034
71 3 0     3.243252155     3.828809628     2.723514001
72 3 0     6.633796457    10.325479376    11.010317114
73 3 0     2.352087998     9.826180045     3.788488858
74 3 0     7.120459979     5.426702525    10.839526939
75 3 0     8.012054103     2.173607740     3.579883729
76 3 0     0.494266799    13.146766950     8.682012179
77 3 0     3.761595091    11.964847652     5.011891735
78 3 0     5.872778779     3.641147485     8.626647570
79 3 0     7.504066391     4.330097603     2.064362583
80 3 0     2.350221032    11.132168623    11.355242333
81 3 0     7.090511921    11.321852161     7.325106248
82 3 0     6.979619324    12.840319461     7.717295164
83 3 0    12.039741539     7.009585208     1.408851923
84 3 0    12.362584174     5.956341062     2.563122293
85 3 0     4.971288569     6.174612978     8.978519410
86 3 0     6.486742270     6.241868259     9.209833818
87 3 0     6.080705446     8.483983098    11.957421420
88 3 0     4.563129601     7.378797944    12.126257545
89 3 0    10.038679658    13.255842853     4.537885661
90 3 0    11.084636702    14.084384034     3.748386292
91 3 0     4.646838529    14.560890949     8.040494589
92 3 0     5.244989074     0.739565747     8.754495676
93 3 0     2.633243420     4.767710966     0.952203356
94 3 0     1.902180310     6.055902821     1.323900416
95 3 0    10.673448512     1.991069863     8.893897901
96 3 0     9.409231437     2.579374372     8.098756826
97 3 0     2.597163385    10.926563227     6.955253214
98 3 0     1.558258704    11.350529387     5.906914882
99 3 0     3.427630263    14.122841915    10.033743331
100 3 0     2.075374774    13.394696999    10.547403506
101 3 0    11.327747873    -0.349442872    11.839126665
102 3 0    11.882315216     0.546597844     9.513432576
103 3 0     2.991672992     8.774626427     0.802959139
104 3 0     3.267915530     7.313819102     1.542742424
105 3 0     3.696578771     1.161057297     6.209967877
106 3 0     4.988895457     2.053989474     6.130254940
107 3 0    10.087354840    14.551868815     6.492532656
108 3 0     9.679868219    16.048062448     6.852960196
109 3 0    11.249212992     3.686836751     8.318557870
110 3 0    -0.184308288     4.903769302     7.709991841
111 3 0     7.494461455     7.610532735    13.303443181
112 3 0     8.977598277     7.966194395    12.914051346
113 3 0     1.018147542     8.646392642     9.403431218
114 3 0     2.346054789     7.898285641     9.004711871
115 3 0    10.725105917     9.262880630    10.790554448
116 3 0    11.096699361     8.072075889     9.906035497
117 3 0     6.501628091    12.296868417     9.569936115
118 3 0     6.675285870    12.601194330    11.142093495
119 3 0     8.313946417     6.445400761     1.658071054
120 3 0     8.919953961     5.770464087     2.932222035
121 3 0     2.695485931     1.084590791     4.337250102
122 3 0     2.491301221     2.547436653     4.827239982
123 3 0    10.579477580     6.647395831    12.953483202
124 3 0    11.125058048     8.125207200    12.717433116
125 3 0     8.504236760     8.540729575     0.113635847
126 3 0     8.213461064     9.697938476     2.009465749
127 3 0     5.003844961     0.376253318     2.929990197
128 3 0     4.757781868     0.824173326     4.396667475
129 3 0    12.980592546     3.730379096    11.907229202
130 3 0     1.100718220     5.315080717    11.691729859
131 3 0     4.266521515     3.536795897    13.013003455
132 3 0     2.785327972     4.459585927    11.538732941
133 3 0     5.795071139     3.160483619     4.466549754
134 3 0     5.773833061     4.233221160     5.619683466
135 3 0     6.020810715     8.178261264     0.983122732
136 3 0     5.728173950     6.676943485     1.088342038
137 3 0     3.829556736     5.992784898    11.405099973
138 3 0     2.884437850     7.192212257    11.999272688
139 3 0     6.225223347     0.409797331     5.737953809
140 3 0     7.426021894    14.678098585     5.105791434
141 3 0    10.744620650     4.206789425     0.140076496
142 3 0    10.310183024     5.182468219     1.293490726
143 3 0     1.199793937    13.677532107     5.727744371
144 3 0    12.527585607    12.888440637     4.758260059
145 3 0    11.265865410    10.315966552     6.089210348
146 3 0    10.680101523    10.692778411     4.681478520
147 3 0     1.459599020     2.652589718     1.637117098
148 3 0     0.389276140     3.836743305     1.433440364
149 3 0    12.343115331     1.168250581     4.028182855
150 3 0    11.270751261     0.642857377     5.029076668
151 3 0     1.579226954    10.278317511    13.542284827
152 3 0     0.222671818     9.505132337    12.087020394
153 3 0     0.901727326    12.551112158    12.587561271
154 3 0    12.194969056    12.522026982    11.417260626
155 3 0     5.526510188     9.237792221     3.414404789
156 3 0     4.222033000     9.009241985     2.505646423
157 3 0     0.319317346     7.003731735    12.288132993
158 3 0     1.174507515     7.219389002    10.946401391
159 3 0     6.142455473     2.659053704    12.525298350
160 3 0     6.673269018     2.181413502    12.704883599
161 3 0     1.276382502     0.912003979     6.257558680
162 3 0    12.117645133     0.427487384     6.780096940
163 3 0     7.882504696     0.848622162    10.052056286
164 3 0     8.151013144    17.338607194     9.580233253
165 3 0     3.071256296    11.653198048    13.547861467
166 3 0     2.985692312    12.566191204     1.781917011
167 3 0     0.682417177     1.120173697     8.198294130
168 3 0     0.729830316     1.688591571     9.845387673
169 3 0     7.539505567    -0.201457425     7.193936301
170 3 0     7.015355265    14.512758488     8.649039080
171 3 0     5.225825715    10.272731036     1.549887791
172 3 0     4.407898148    10.037640033    14.234659881
173 3 0     8.731336861     3.761227117     6.395509766
174 3 0     7.674193615     2.636435114     6.380894067
175 3 0     8.991061229     9.933278791    13.137659774
176 3 0    10.575050306     9.890682506    12.767178166
177 3 0    11.091759507    12.530214441    13.050378569
178 3 0    10.102055237    11.564479658    12.272598676
179 3 0     4.430928938    12.533910776     7.614422199
180 3 0     3.138917746    13.170267166     8.271721042
181 3 0     8.945460895    13.127856460     7.212681257
182 3 0     9.970426625    12.282383570     6.238813723
183 3 0     7.263321318     7.938914252     3.328454789
184 3 0     8.779217409     7.892080478     3.151679411
185 5 0     0.175525588     6.889855742     7.002889127
186 5 0     8.884344787     7.600350773     6.078342151
187 5 0     8.046175204    14.731778189    12.993861318
188 5 0     1.924503837     1.119805910     1.403865674
189 5 0     2.677997223     7.793189054     6.492007576
190 5 0     6.298705737     7.193657011     6.513311415
191 5 0     8.011951237    -0.129193780    -0.173181999
192 5 0     1.671616013    14.963308274    13.591930339
193 5 0     8.209847380    13.231173764     1.976982823
194 5 0     1.457150197     1.507341878    11.276243482
195 5 0     2.738458869     5.797873920     4.524876661
196 5 0     6.526528414     8.828498966     8.647405667
197 5 0    10.634054397    12.628251877     1.146532622
198 5 0    -0.598597824     2.507444206    12.331723623
199 5 0     0.234998055     5.238193641     4.980944773
200 5 0     8.896634207     9.237781392     8.220641569
201 5 0     1.055348872     7.815741391     4.585736539
202 5 0     8.043206919     6.656753657     8.493355516
203 5 0     9.537401952     0.262576846     1.934176323
204 5 0    -0.868844469    14.787701608    10.263504141
205 5 0     0.351330781    13.726652524     1.545086142
206 5 0     9.505283993     1.925184273    12.786418285
207 5 0    10.435586581     5.560922663     5.997094126
208 5 0    -1.324610868     9.004626641     7.206152823
209 5 0    -1.172079825     8.004017314     4.657593678
210 5 0    10.276167805     6.734674313     8.431092828
211 5 0    11.625808358     1.111177209     1.725867047
212 5 0    -3.088690446    14.450171322    10.455524467
213 5 0     7.147219603     9.731821942     6.192599147
214 5 0     2.193747273     5.152046538     7.031726227
215 5 0     4.093949982     2.486712519     0.590309382
216 5 0     5.982996985    12.495377145    12.813133776
217 5 0     4.887172926     9.501137404     6.077781864
218 5 0     4.385307247     5.643104288     6.999469059
219 5 0     6.307162841     2.005416015     0.643748645
220 5 0     3.760216005    12.484675315    13.311970524
221 5 0     6.433683233    14.646995062     1.916326268
222 5 0     3.508579004     0.666694498    11.627556476
223 5 0     4.514158591     7.227274084     4.660348424
224 5 0     4.408897144     8.075583412     8.294677761
225 5 0     1.376238985    11.316538732     2.656924063
226 5 0     8.482374784     4.103608826    11.740712782
227 5 0     9.201316123     3.787841668     4.375953645
228 5 0    -0.479657489    11.322524323     8.254458463
229 5 0     5.097575043    13.050741163     3.784315275
230 5 0     4.622712125     2.436455317     9.819483738
231 5 0     6.133313814     5.378737793     3.314596488
232 5 0     3.457069221     9.821173552    10.116583176
233 5 0     6.520800405    11.952147793     7.803222334
234 5 0     0.519112857     6.640779392     2.000119251
235 5 0     5.639718507     6.047151942     9.675728146
236 5 0     5.899653881     7.885947960    12.720368409
237 5 0    10.738948528    13.166822696     3.871880188
238 5 0     5.070934812    -0.209043745     8.869593385
239 5 0     2.724837244     5.740954307     0.831532553
240 5 0     9.945928714     2.644972198     8.926761877
241 5 0     1.982981677    10.536039830     6.306038195
242 5 0     2.606537266    13.667456444     9.752743855
243 5 0    11.237359432    14.936379249    12.797562249
244 5 0     3.265978342     8.284362109     1.678757548
245 5 0     4.675040137     1.126596747     6.308770627
246 5 0    10.417620089    15.509340066     6.519108149
247 5 0    12.122861504     3.958674096     7.952689436
248 5 0     8.368653011     7.858236174    13.684309412
249 5 0     1.417201222     7.757737114     9.295717515
250 5 0    11.416876799     8.962146271    10.162633281
251 5 0     6.626462896    12.994562211    10.250447465
252 5 0     9.144938265     6.354785750     2.178289687
253 5 0     2.206187320     1.628399142     4.998517190
254 5 0    10.724354238     7.326886711    12.270124174
255 5 0     8.161323003     9.815027979     1.035073933
256 5 0     4.473202319     1.001528056     3.475742919
257 5 0     1.347608746     4.370563720    11.461449595
258 5 0     3.822460061     4.685053118    11.480654193
259 5 0     5.918560583     3.283901131     5.428835152
260 5 0     6.405915947     7.344056729     1.316758293
261 5 0     3.768205846     7.109706521    11.546946130
262 5 0     7.196426460     0.433808568     5.560986463
263 5 0    10.841553716     4.379988269     1.096022951
264 5 0     1.192519677    12.885032143     5.154779292
265 5 0    10.914795169    11.061539737     5.551589062
266 5 0     1.291529511     3.633542575     1.773950366
267 5 0    11.935902178     0.351075620     4.362541023
268 5 0    -0.126548547     9.637370843    12.988635849
269 5 0     0.927004573    12.524732870    11.595676648
270 5 0     4.877583386     9.726256670     2.888098372
271 5 0     1.228239434     6.923613821    11.895802043
272 5 0     7.057899788     4.529899227    -0.466983276
273 5 0    13.090681514     0.421387841     7.005338148
274 5 0     7.411863372     1.633940178     9.689255930
275 5 0     3.433429884    12.721126972     0.937515801
276 5 0     0.157434711     1.444381921     9.054777414
277 5 0     7.692217755    14.274921972     7.962925289
278 5 0     5.321868584    10.431763942     0.527091058
279 5 0     8.345753799     3.057982663     6.952441891
280 5 0     9.619787007    10.045172102    12.401566233
281 5 0    10.503435310    12.467422352    12.271000091
282 5 0     3.593052651    12.995533079     7.397128044
283 5 0     9.437339071    13.118145984     6.357941395
284 5 0     8.074762769     8.415077097     3.613835861
