# Position data file
 
128 atoms
5 atom types
 
    0.000000000    12.239000320 xlo xhi
    0.000000000    15.074000359 ylo yhi
    0.000000000    13.358706116 zlo zhi
    0.000000000    -2.809763788     0.000000000 xy xz yz
 
Masses
 
1    26.982000000
2    12.011000000
3     1.008000000
4    14.007000000
5    15.999000000
 
Atoms
 
1 1 0    -1.404881894     7.537000179     6.679353058
2 1 0     0.000000000     0.000000000     0.000000000
3 1 0     1.671589195     6.552471828     5.849042572
4 1 0     7.757646971     8.521528093     7.509663543
5 1 0     9.162528884    14.089472445     0.830310392
6 1 0     0.266707301     0.984528140    12.528395630
7 1 0     4.714618266     7.537000179     6.679353058
8 1 0     6.119500160     0.000000000     0.000000000
9 2 0    11.595567876    12.605738031     1.445024613
10 2 0    -2.166331238     2.468262101    11.913681703
11 2 0    -0.761449345     5.068738304     5.234328646
12 2 0    10.190686024    10.005262506     8.124377470
13 2 0     0.104774163     8.519643979     4.367041128
14 2 0     9.324462451     6.554356380     8.991664600
15 2 0    10.729344264     0.982643905     2.312311930
16 2 0    -1.300107813    14.091356559    11.046394573
17 2 0     6.696292606    13.659531595     2.385023260
18 2 0     2.732943602     1.414468884    10.973682655
19 2 0     4.137825496     6.122531416     4.294329597
20 2 0     5.291410670     8.951468943     9.064376519
21 2 0     5.989177649    10.053770564     5.838395630
22 2 0     3.440058968     5.020229794     7.520310085
23 2 0     4.844940819     2.516770159     0.840957227
24 2 0     4.584295671    12.557229974    12.517749089
25 2 0    11.466609188    10.524003779     2.954544938
26 2 0    -2.037372478     4.549996579    10.404160977
27 2 0    -0.632490584     2.987003600     3.724807919
28 2 0    10.061727252    12.086996759     9.633898196
29 2 0     6.168337804    12.818417329     3.454133776
30 2 0     3.260898374     2.255583030     9.904572340
31 2 0     4.665780310     5.281417149     3.225219081
32 2 0     4.763455910     9.792583209    10.133486834
33 2 0    -0.143662331    11.404657465     2.116045713
34 2 0     9.572899316     3.669343345    11.242660002
35 2 0    10.977781125     3.867656834     4.563307345
36 2 0    -1.548544310    11.206343073     8.795399171
37 2 0     0.222355321     9.597088242     3.378871093
38 2 0     9.206881127     5.476912116     9.979835423
39 2 0    10.611763063     2.060088289     3.300482165
40 2 0    -1.182526488    13.013912296    10.058223750
41 2 0     6.805683533    11.887070488     4.226360474
42 2 0     2.623552716     3.186930097     9.132345241
43 2 0     4.028434568     4.350070309     2.452992384
44 2 0     5.400801555    10.723930050    10.905713932
45 2 0     1.394889139     9.974390728     2.758572733
46 2 0     8.034347026     5.099594813    10.600133383
47 2 0     9.439228920     2.437390548     3.920780325
48 2 0    -0.009992754    12.636609810     9.437925791
49 2 0     5.788457872    11.198022239     4.943335630
50 2 0     3.640779100     3.875977667     8.415370085
51 2 0     5.045660952     3.661022512     1.736017228
52 2 0     4.383575893    11.412978299    11.622689088
53 2 0     4.590962918    11.767850219     4.566593427
54 2 0     4.838273699     3.306150366     8.792112288
55 2 0     6.243155551     4.230850040     2.112759431
56 2 0     3.186080940    10.843150319    11.245946885
57 3 0     0.496482024     6.842163922     7.950206940
58 3 0     8.932754692     8.231836437     5.408499175
59 3 0     7.527872798    14.379164101    12.087852233
60 3 0     1.901363940     0.694836031     1.270853776
61 3 0     2.506651000     8.455700024     7.071617971
62 3 0     6.922585900     6.618300334     6.287088145
63 3 0     5.517704006     0.918700011    12.966441203
64 3 0     3.911532869    14.155300514     0.392265033
65 3 0    10.423278571    10.551423612     3.244348775
66 3 0    -0.994041812     4.522576747    10.114357140
67 3 0     0.410840082     3.014423207     3.435004082
68 3 0     9.018396635    12.059576926     9.923702034
69 3 0     7.872410157    11.700966427     4.254934773
70 3 0     1.556829579     3.373033705     9.103757797
71 3 0     2.961708666     4.163966700     2.424418085
72 3 0     6.467525414    10.910034111    10.934301376
73 3 0     2.400231237     9.568689067     2.784729240
74 3 0     7.029005663     5.505311292    10.573976876
75 3 0     8.433887556     2.031688888     3.894623818
76 3 0     0.995349343    13.042311471     9.464082297
77 3 0     3.562435944    11.572325602     4.848101628
78 3 0     5.866800589     3.501675209     8.510604488
79 3 0     7.271682483     4.035324970     1.831251430
80 3 0     2.157554050    11.038674936    11.527454685
81 5 0     0.385563270     7.190795447     7.051753347
82 5 0     9.043673347     7.883204459     6.306952367
83 5 0     7.638791369    14.727796079    12.986305826
84 5 0     1.790445091     0.346204566     0.372400637
85 5 0     2.899447809     7.799996188     6.475712848
86 5 0     6.529788724     7.274004170     6.882993267
87 5 0     7.934670637     0.262996084     0.203640116
88 5 0     1.494565915    14.811004350    13.155065906
89 5 0     7.910441309    13.421407325     2.087605174
90 5 0     1.518795224     1.652592807    11.271100941
91 5 0     2.923677118     5.884407598     4.591747883
92 5 0     6.505559415     9.189593213     8.766958232
93 5 0    10.332888802    12.758317078     1.516159683
94 5 0    -0.903652063     2.315683054    11.842546326
95 5 0     0.501229830     5.221317351     5.163193268
96 5 0     8.928006886     9.852683460     8.195512847
97 5 0     1.122961952     7.774446089     4.506399217
98 5 0     8.306274129     7.299554707     8.852307299
99 5 0     9.711156107     0.237445669     2.172953841
100 5 0    -0.281919857    14.836554449    11.185751874
101 5 0     0.205168062    13.379366526     0.898934012
102 5 0     9.224068176     1.694634179    12.459772398
103 5 0    10.628950155     5.842365895     5.780418939
104 5 0    -1.199713770     9.231634012     7.578286776
105 5 0    -0.984484896     8.429803118     5.028243579
106 5 0    10.413721571     6.644197241     8.330462149
107 5 0    11.818603403     0.892802878     1.651109385
108 5 0    -2.389366871    14.181197420    11.707597024
109 5 0     7.189273934     9.820545706     6.205680070
110 5 0     2.239962517     5.253455090     7.153026433
111 5 0     3.644844493     2.283545301     0.473672988
112 5 0     5.784392122    12.790454832    12.885032740
113 5 0     4.957033912     9.380987524     6.160607662
114 5 0     4.472202253     5.693012835     7.198098454
115 5 0     5.877084170     1.843987345     0.518745289
116 5 0     3.552152018    13.230013014    12.839960719
117 5 0     5.919501572    14.496093242     1.819282136
118 5 0     3.509735003     0.577907056    11.539423779
119 5 0     4.914616812     6.959093063     4.860071122
120 5 0     4.514619636     8.114907295     8.498635395
121 5 0     1.195034410    11.074430872     1.996899399
122 5 0     8.234202023     3.999569486    11.361806315
123 5 0     9.639083832     3.537430693     4.682453658
124 5 0    -0.209847568    11.536569666     8.676252858
125 5 0     4.801744408    12.764784337     3.673443614
126 5 0     4.627491839     2.309216248     9.685262114
127 5 0     6.032373691     5.227783705     3.005909257
128 5 0     3.396862433     9.846216201    10.352797059
