ITEM: TIMESTEP
0
ITEM: NUMBER OF ATOMS
128
ITEM: BOX BOUNDS xy xz yz pp pp pp
-2.8097637880000002e+00 1.2239000320000001e+01 0.0000000000000000e+00
0.0000000000000000e+00 1.5074000358999999e+01 -2.8097637880000002e+00
0.0000000000000000e+00 1.3358706116000000e+01 0.0000000000000000e+00
ITEM: ATOMS id type x y z vx vy vz
2 1 0 0 0 0.000298722 -0.00116261 0.00148114
27 2 -0.632491 2.987 3.72481 -0.0074907 -0.00145966 -0.00294034
60 3 1.90136 0.694836 1.27085 0.00240717 -0.00430854 -0.0149552
67 3 0.41084 3.01442 3.435 0.0164458 0.0153605 0.0124928
84 5 1.79045 0.346205 0.372401 -0.00364497 -0.00216824 0.00453998
111 5 3.64484 2.28355 0.473673 0.000154119 0.00510493 -0.000142911
6 1 0.266707 0.984528 12.5284 -6.25467e-05 -0.00128671 -0.00431933
10 2 -2.16633 2.46826 11.9137 -0.00048626 -9.82563e-05 0.00137047
70 3 1.55683 3.37303 9.10376 0.0199458 -0.0201054 -0.0194196
90 5 1.5188 1.65259 11.2711 0.00394448 0.00213352 0.00217923
94 5 -0.903652 2.31568 11.8425 0.00124986 0.00469529 0.00416908
71 3 2.96171 4.16397 2.42442 -0.000796464 0.0119354 0.00274098
1 1 -1.40488 7.537 6.67935 -0.00435454 -0.00108177 -0.00549082
3 1 1.67159 6.55247 5.84904 -0.00190052 0.00226774 -0.00495801
11 2 -0.761449 5.06874 5.23433 0.00514849 -0.000458433 -0.00619532
57 3 0.496482 6.84216 7.95021 -0.022176 -0.0143917 -0.0223155
81 5 0.385563 7.1908 7.05175 0.00324321 0.00241322 -0.00325744
91 5 2.92368 5.88441 4.59175 0.00447949 0.00412597 -0.00147669
95 5 0.50123 5.22132 5.16319 -0.0019303 0.00454103 0.00340123
110 5 2.23996 5.25346 7.15303 -0.00164612 0.00609799 0.00623655
26 2 -2.03737 4.55 10.4042 -0.00551757 0.00281822 0.00570985
66 3 -0.994042 4.52258 10.1144 0.0249481 -0.0247503 0.0133065
13 2 0.104774 8.51964 4.36704 0.000114652 0.00714932 -0.004348
37 2 0.222355 9.59709 3.37887 -0.00489364 0.00328334 -0.00208176
45 2 1.39489 9.97439 2.75857 0.00287858 -0.00181267 -0.000202125
73 3 2.40023 9.56869 2.78473 -5.93862e-05 0.00847155 -0.0067356
121 5 1.19503 11.0744 1.9969 0.00537553 0.00316899 -0.00162798
36 2 -1.54854 11.2063 8.7954 0.00678585 -0.00287692 -0.00125781
61 3 2.50665 8.4557 7.07162 -0.0234959 -0.0233586 -0.0205992
97 5 1.12296 7.77445 4.5064 0.00236337 0.00271248 0.00614205
104 5 -1.19971 9.23163 7.57829 -0.00464436 -0.0058042 -0.00305135
105 5 -0.984485 8.4298 5.02824 0.00237154 0.00364405 0.002163
33 2 -0.143662 11.4047 2.11605 -0.00669805 0.000577487 0.006745
64 3 3.91153 14.1553 0.392265 0.00776207 -0.00621686 -0.0223119
101 5 0.205168 13.3794 0.898934 -0.000494251 -0.00582777 -0.00358007
124 5 -0.209848 11.5366 8.67625 -0.00688949 -0.00629492 0.00263952
16 2 -1.30011 14.0914 11.0464 -0.00516494 -0.00629912 -0.00313543
40 2 -1.18253 13.0139 10.0582 0.00728923 0.00253138 0.00259067
48 2 -0.00999275 12.6366 9.43793 0.00754743 -0.00334507 0.00289262
76 3 0.995349 13.0423 9.46408 0.0200247 0.000392779 -0.0231694
100 5 -0.28192 14.8366 11.1858 -0.00416427 0.000687335 0.00602386
108 5 -2.38937 14.1812 11.7076 0.00424408 0.00367263 0.00509759
8 1 6.1195 0 0 -0.00063907 0.00492616 -0.0014066
23 2 4.84494 2.51677 0.840957 0.00378144 -0.00509984 -3.6131e-05
51 2 5.04566 3.66102 1.73602 -0.00759296 -0.00405641 -0.00255788
87 5 7.93467 0.262996 0.20364 -0.00119509 0.00175401 -0.00541604
115 5 5.87708 1.84399 0.518745 0.00277059 -0.00134141 -1.4351e-05
54 2 4.83827 3.30615 8.79211 0.00103141 0.00110707 -0.00405173
78 3 5.8668 3.50168 8.5106 0.0249271 0.00360046 -0.0257982
18 2 2.73294 1.41447 10.9737 -0.00277232 -0.00522116 -0.00789285
30 2 3.2609 2.25558 9.90457 0.00643266 -0.00329507 -0.00690065
42 2 2.62355 3.18693 9.13235 -0.00134847 -0.00629732 -0.00447811
118 5 3.50974 0.577907 11.5394 -0.00189329 -0.00085492 0.0049222
126 5 4.62749 2.30922 9.68526 0.00370905 0.00133308 0.000168006
19 2 4.13783 6.12253 4.29433 -0.00110452 0.000302017 0.00582817
31 2 4.66578 5.28142 3.22522 0.00128494 -0.00458838 -0.000467797
43 2 4.02843 4.35007 2.45299 0.00140799 0.0010631 -0.00306053
55 2 6.24316 4.23085 2.11276 0.00389983 0.000851664 0.00168443
79 3 7.27168 4.03532 1.83125 0.0239731 0.00268628 -0.00970548
127 5 6.03237 5.22778 3.00591 0.00639917 0.00504394 -0.00211887
7 1 4.71462 7.537 6.67935 0.00373918 0.0047702 0.00353503
22 2 3.44006 5.02023 7.52031 -0.00342362 0.00671168 -0.00716749
50 2 3.64078 3.87598 8.41537 -0.000858144 0.000247383 0.000773916
86 5 6.52979 7.274 6.88299 0.00413759 0.000946044 0.00239318
114 5 4.4722 5.69301 7.1981 0.0028508 -0.00375312 -0.00367469
119 5 4.91462 6.95909 4.86007 -0.0040264 -0.00129037 -0.00167891
21 2 5.98918 10.0538 5.8384 0.0045779 -0.00190325 0.00463935
49 2 5.78846 11.198 4.94334 0.00304789 -0.00598703 -0.000916584
85 5 2.89945 7.8 6.47571 -0.00269829 0.00227263 -0.00615997
113 5 4.95703 9.38099 6.16061 -0.00388056 -0.00563975 0.00508819
120 5 4.51462 8.11491 8.49864 0.000612739 0.00546598 -0.00264777
20 2 5.29141 8.95147 9.06438 -0.00265719 -0.00670375 -0.00207413
32 2 4.76346 9.79258 10.1335 0.000246201 -0.00188548 0.0042354
44 2 5.4008 10.7239 10.9057 0.00517291 0.000524592 -0.000566003
56 2 3.18608 10.8432 11.2459 0.00743027 -0.0044362 0.00675068
80 3 2.15755 11.0387 11.5275 0.000506016 0.000132679 0.00758912
128 5 3.39686 9.84622 10.3528 -1.87355e-05 0.00565766 -0.000641821
17 2 6.69629 13.6595 2.38502 0.00581853 0.00354956 0.000800433
29 2 6.16834 12.8184 3.45413 0.00664902 -0.00381457 1.87635e-05
41 2 6.80568 11.8871 4.22636 -0.00220285 -0.00668438 -0.00722775
117 5 5.9195 14.4961 1.81928 0.000127901 0.000998527 -0.00224155
125 5 4.80174 12.7648 3.67344 0.00562727 0.00513485 -0.00211053
53 2 4.59096 11.7679 4.56659 0.00432418 0.000506833 0.000102753
77 3 3.56244 11.5723 4.8481 0.0215132 0.0185909 0.011134
24 2 4.5843 12.5572 12.5177 -0.00299429 -0.00429391 0.00502868
52 2 4.38358 11.413 11.6227 -0.00169709 0.00720987 0.00557097
88 5 1.49457 14.811 13.1551 -0.00224402 -0.00235073 -0.00678497
116 5 3.55215 13.23 12.84 -0.0027014 0.00443536 0.000909507
15 2 10.7293 0.982644 2.31231 0.00640916 -0.0046012 0.0045643
39 2 10.6118 2.06009 3.30048 -0.0038544 -0.00671981 -0.00437472
47 2 9.43923 2.43739 3.92078 0.00563028 0.0042216 0.00703724
75 3 8.43389 2.03169 3.89462 -0.0121278 0.0053102 0.0137142
99 5 9.71116 0.237446 2.17295 0.00104457 0.00574595 -0.00370595
107 5 11.8186 0.892803 1.65111 -0.00471277 0.00405219 -6.26384e-05
123 5 9.63908 3.53743 4.68245 0.000438592 -0.00205783 0.00480839
34 2 9.5729 3.66934 11.2427 -0.00749815 -0.000709563 -0.00740324
63 3 5.5177 0.9187 12.9664 0.0119955 0.00243234 0.0160158
102 5 9.22407 1.69463 12.4598 -0.00293712 -0.00101785 -0.00499333
35 2 10.9778 3.86766 4.56331 -0.00667927 0.00134056 -0.000116113
62 3 6.92259 6.6183 6.28709 0.0107824 -0.00612396 0.0172287
98 5 8.30627 7.29955 8.85231 -0.00579057 0.00580648 0.00414816
103 5 10.629 5.84237 5.78042 -0.00510535 -0.00509678 0.00443597
106 5 10.4137 6.6442 8.33046 0.00452235 0.00134236 0.00608448
14 2 9.32446 6.55436 8.99166 -0.000276274 0.00234934 -0.00238129
38 2 9.20688 5.47691 9.97984 0.00227959 0.00759392 0.0050056
46 2 8.03435 5.09959 10.6001 -0.0060697 -0.00331195 -0.00723951
74 3 7.02901 5.50531 10.574 0.0229711 0.00997485 -0.0129302
122 5 8.2342 3.99957 11.3618 -0.00298162 0.0013382 0.00430072
25 2 11.4666 10.524 2.95454 0.00617667 -0.00737102 -0.00687389
65 3 10.4233 10.5514 3.24435 -0.0237367 0.00566655 0.0245247
4 1 7.75765 8.52153 7.50966 -0.00536924 0.00440928 -0.00115087
12 2 10.1907 10.0053 8.12438 0.000180976 0.00399211 0.00732439
58 3 8.93275 8.23184 5.4085 0.0247151 0.0264442 -0.0119444
82 5 9.04367 7.8832 6.30695 0.00360649 -0.00346134 0.00287504
92 5 6.50556 9.18959 8.76696 0.00242702 -0.00518122 0.00398269
96 5 8.92801 9.85268 8.19551 -0.00209156 -0.00461382 0.00453703
109 5 7.18927 9.82055 6.20568 -0.00284391 -0.00328678 0.00369914
72 3 6.46753 10.91 10.9343 -0.000548215 -0.000596374 -0.0171172
5 1 9.16253 14.0895 0.83031 -0.00286212 -0.00323395 0.000921857
9 2 11.5956 12.6057 1.44502 -0.00666366 -0.00395801 -0.00181026
69 3 7.87241 11.701 4.25493 -0.0197222 -0.0229711 0.0251421
89 5 7.91044 13.4214 2.08761 0.00408324 0.00146379 0.000577758
93 5 10.3329 12.7583 1.51616 0.0030326 -0.0039503 -0.0026334
28 2 10.0617 12.087 9.6339 -0.005787 -0.00681911 -0.00445532
59 3 7.52787 14.3792 12.0879 -0.0200927 -0.000467551 -0.0259483
68 3 9.0184 12.0596 9.9237 -0.0181859 -0.0188069 0.0107433
83 5 7.63879 14.7278 12.9863 -0.00578639 -0.00574767 0.00565517
112 5 5.78439 12.7905 12.885 0.00564493 0.00187925 -0.00134557
ITEM: TIMESTEP
5
ITEM: NUMBER OF ATOMS
128
ITEM: BOX BOUNDS xy xz yz pp pp pp
-2.8097637880000002e+00 1.2239000320000001e+01 0.0000000000000000e+00
0.0000000000000000e+00 1.5074000358999999e+01 -2.8097637880000002e+00
0.0000000000000000e+00 1.3358706116000000e+01 0.0000000000000000e+00
ITEM: ATOMS id type x y z vx vy vz
111 5 3.64493 2.2861 0.473608 0.00017909 0.00510121 -0.000118336
27 2 -0.63619 2.98628 3.72333 -0.00728083 -0.00144672 -0.00299063
60 3 1.9026 0.692814 1.26358 0.0025697 -0.00365018 -0.0137977
67 3 0.419226 3.02199 3.44116 0.0168314 0.0148811 0.0121581
84 5 1.78862 0.34512 0.374654 -0.0036677 -0.0021782 0.00445059
6 1 0.266673 0.983882 12.5262 -7.55303e-05 -0.00129954 -0.00430043
10 2 -2.16656 2.46823 11.9143 -0.000438652 -2.86682e-05 0.00124681
70 3 1.5664 3.36306 9.09398 0.0180298 -0.0197237 -0.0197108
90 5 1.52076 1.65366 11.2722 0.00390947 0.00214916 0.00221556
94 5 -0.903028 2.31802 11.8446 0.00124429 0.00466527 0.00418377
71 3 2.96105 4.16987 2.42571 -0.00182256 0.0116523 0.00241193
110 5 2.23914 5.2565 7.15615 -0.00163997 0.00609834 0.00625383
3 1 1.67064 6.55361 5.84657 -0.00190942 0.00228092 -0.00494183
11 2 -0.758872 5.0685 5.23121 0.00513658 -0.000500054 -0.0062814
57 3 0.485432 6.83485 7.93922 -0.0219766 -0.014986 -0.0213515
81 5 0.387177 7.192 7.05011 0.00320809 0.00242304 -0.00332908
91 5 2.92591 5.88647 4.59102 0.00442038 0.00410574 -0.00142577
95 5 0.500268 5.22359 5.1649 -0.00190948 0.00456793 0.00340824
26 2 -2.04008 4.55141 10.407 -0.00527353 0.0028178 0.00563628
66 3 -0.981456 4.51032 10.1209 0.0250148 -0.0242342 0.0130669
13 2 0.104818 8.52323 4.36488 6.47961e-05 0.00718588 -0.00427328
37 2 0.219948 9.59871 3.37784 -0.00471856 0.0032057 -0.00204359
45 2 1.39637 9.97339 2.75853 0.00304513 -0.00219604 2.12036e-05
73 3 2.40052 9.57258 2.78157 0.00129892 0.00704211 -0.00590307
121 5 1.19776 11.0761 1.99603 0.00551033 0.00341763 -0.00185339
36 2 -1.54523 11.2048 8.79475 0.00646205 -0.00310986 -0.00132209
61 3 2.49486 8.44415 7.06149 -0.0237716 -0.0225772 -0.01969
97 5 1.12414 7.77581 4.50945 0.00233473 0.00274297 0.00604755
104 5 -1.20204 9.22874 7.57677 -0.00465407 -0.00576094 -0.00302041
105 5 -0.983296 8.43163 5.02931 0.00238364 0.00364747 0.00209621
33 2 -0.147073 11.405 2.11939 -0.00692576 0.000832034 0.00663045
64 3 3.91538 14.1521 0.381236 0.00754627 -0.00670514 -0.021671
101 5 0.20492 13.3764 0.897149 -0.000502196 -0.00585332 -0.00356019
2 1 0.000148665 15.0734 0.000740419 0.000294395 -0.00116488 0.0014802
124 5 -0.213248 11.5334 8.67751 -0.00670325 -0.00653879 0.00240324
16 2 -1.3027 14.0882 11.0448 -0.00518414 -0.00632698 -0.00306574
40 2 -1.17886 13.0152 10.0595 0.0073695 0.00252932 0.0026011
48 2 -0.00616591 12.635 9.43943 0.0077676 -0.00292446 0.00312341
76 3 1.00556 13.0428 9.4527 0.0206478 0.00149423 -0.0223545
100 5 -0.284006 14.8369 11.1887 -0.00418411 0.000664985 0.00593309
108 5 -2.38724 14.183 11.7101 0.00423876 0.0036618 0.00503386
115 5 5.87846 1.84332 0.518734 0.0027525 -0.00132501 -3.21794e-05
23 2 4.84683 2.51424 0.840959 0.00377081 -0.00502583 4.49436e-05
51 2 5.0419 3.65898 1.73474 -0.00741833 -0.004098 -0.00256273
87 5 7.93407 0.263866 0.200938 -0.00120984 0.00171939 -0.00538536
54 2 4.83886 3.3068 8.78999 0.00133254 0.00148269 -0.00445083
78 3 5.87934 3.50369 8.49754 0.0248047 0.00437143 -0.0263328
18 2 2.73154 1.41189 10.9697 -0.00281652 -0.00509481 -0.00793204
30 2 3.26404 2.25388 9.90117 0.00614577 -0.003514 -0.00669361
42 2 2.62285 3.18379 9.1301 -0.00142996 -0.00628495 -0.00449011
118 5 3.50879 0.577479 11.5419 -0.00190824 -0.000852942 0.00487867
126 5 4.62939 2.30982 9.6854 0.00386658 0.00107042 0.00038353
8 1 3.30942 0.00246262 13.358 -0.000638735 0.00492325 -0.00140733
19 2 4.13726 6.12265 4.29722 -0.00114869 0.000151031 0.00573614
31 2 4.66636 5.27918 3.22504 0.00103287 -0.00436107 -0.000257827
43 2 4.02909 4.3506 2.45146 0.00122813 0.00103894 -0.00306595
55 2 6.24516 4.23118 2.1135 0.00414432 0.000464931 0.0012758
79 3 7.28379 4.03644 1.82621 0.0241363 0.00181614 -0.0103547
127 5 6.03561 5.23037 3.0049 0.00653464 0.00530196 -0.00190174
119 5 4.9126 6.95845 4.85923 -0.0040217 -0.0012704 -0.00169498
22 2 3.43836 5.02357 7.51675 -0.00338181 0.00661823 -0.00705341
50 2 3.64038 3.87612 8.41575 -0.000755098 0.000328596 0.000733625
86 5 6.53185 7.27448 6.88419 0.00412118 0.000962018 0.00240495
114 5 4.47362 5.69113 7.19626 0.00282811 -0.00376234 -0.0036972
21 2 5.99145 10.0528 5.8407 0.00449799 -0.00186033 0.00455771
49 2 5.78995 11.195 4.94288 0.00291904 -0.00604396 -0.000900725
85 5 2.89811 7.80112 6.47262 -0.0026613 0.00221203 -0.00620545
113 5 4.9551 9.37818 6.16315 -0.00383315 -0.00559884 0.00509605
120 5 4.51493 8.11764 8.49732 0.000603562 0.00543754 -0.00263112
7 1 4.71649 7.53938 6.68112 0.00373577 0.00476772 0.0035311
20 2 5.29011 8.94816 9.06336 -0.00254978 -0.00652927 -0.00198991
32 2 4.76365 9.79159 10.1356 0.000523257 -0.00209056 0.00403506
44 2 5.40342 10.7242 10.9054 0.00529528 0.000547625 -0.000553232
56 2 3.18974 10.841 11.2494 0.00717155 -0.00405929 0.00714042
80 3 2.1576 11.039 11.5315 -0.000219816 0.00108005 0.00839886
128 5 3.39682 9.84898 10.3524 -0.000165765 0.00538504 -0.000863959
17 2 6.69922 13.6613 2.38544 0.00587316 0.00341863 0.000852447
29 2 6.17173 12.8166 3.45409 0.00690053 -0.00358717 -0.000193924
41 2 6.80462 11.8837 4.22275 -0.00205304 -0.00672379 -0.00719553
117 5 5.91957 14.4966 1.81817 0.000147425 0.000996262 -0.00220534
125 5 4.80452 12.7674 3.67233 0.0054766 0.00539231 -0.00232303
53 2 4.59308 11.768 4.56674 0.00417159 0.000164499 0.00046213
77 3 3.57283 11.5813 4.85392 0.019821 0.0174401 0.0121956
24 2 4.5828 12.5551 12.5202 -0.00299323 -0.00431236 0.0049684
52 2 4.38271 11.4166 11.6255 -0.00177238 0.00723495 0.0055665
88 5 1.49345 14.8098 13.1517 -0.00221599 -0.00230765 -0.00681545
116 5 3.55081 13.2322 12.8404 -0.00266624 0.004404 0.000925067
15 2 10.7326 0.980361 2.31458 0.00642897 -0.00452785 0.00451901
39 2 10.6098 2.05672 3.29829 -0.00395942 -0.00672961 -0.00438033
47 2 9.44198 2.43939 3.92424 0.00534439 0.00375233 0.00678299
75 3 8.42764 2.03406 3.90128 -0.0126244 0.00423637 0.0129093
99 5 9.71168 0.24032 2.17112 0.00104945 0.00574496 -0.00362595
107 5 11.8162 0.894828 1.65109 -0.00469432 0.00404799 -1.79591e-05
123 5 9.63926 3.53647 4.68492 0.000278908 -0.00179311 0.00505399
34 2 9.56922 3.66892 11.239 -0.00721099 -0.000976381 -0.00729577
63 3 5.52371 0.919978 12.9743 0.0120724 0.00277371 0.0154894
102 5 9.2226 1.69413 12.4573 -0.00293425 -0.000998394 -0.00500639
35 2 10.9745 3.86839 4.56327 -0.00636187 0.00157798 -4.95048e-05
62 3 6.92797 6.61521 6.29563 0.0107554 -0.00625717 0.0169035
98 5 8.30339 7.30245 8.8544 -0.00575352 0.00577746 0.00422697
103 5 10.6264 5.83981 5.78263 -0.00508518 -0.00512875 0.00440936
106 5 10.416 6.64487 8.33352 0.00450575 0.00134581 0.00613839
1 1 10.8319 7.53646 6.67661 -0.0043496 -0.00108272 -0.00548797
14 2 9.32434 6.55552 8.99046 -0.000233339 0.00229342 -0.00241604
38 2 9.20799 5.48072 9.98233 0.00213614 0.00763312 0.00496673
46 2 8.03128 5.09804 10.5965 -0.00617973 -0.00291439 -0.00747521
74 3 7.04007 5.51066 10.5673 0.0209712 0.0115134 -0.0136872
122 5 8.23267 4.00018 11.364 -0.00314581 0.00109046 0.00452878
25 2 11.4696 10.5203 2.95113 0.00586828 -0.00735897 -0.00677896
65 3 10.4113 10.5542 3.25666 -0.0235175 0.00525905 0.0245553
4 1 7.75497 8.52373 7.50908 -0.00535258 0.00439284 -0.00116373
12 2 10.1908 10.0073 8.12806 0.000124425 0.00399521 0.0074016
58 3 8.94511 8.24506 5.40265 0.0247178 0.0263149 -0.011053
82 5 9.04548 7.88148 6.30839 0.00361395 -0.00342278 0.00283048
92 5 6.50678 9.18701 8.76894 0.00243913 -0.0051692 0.00394395
96 5 8.92696 9.85037 8.19778 -0.00207693 -0.00463087 0.0045279
109 5 7.18785 9.8189 6.20752 -0.00284364 -0.00327983 0.00367406
72 3 6.46755 10.9098 10.9258 0.000714339 -0.000267296 -0.0167767
5 1 9.1611 14.0879 0.830767 -0.00285156 -0.00321824 0.000905394
9 2 11.5922 12.6037 1.44415 -0.00666338 -0.0040158 -0.0017003
69 3 7.8629 11.6894 4.26756 -0.0181352 -0.0231847 0.0253063
89 5 7.91249 13.4221 2.08788 0.00411286 0.00145274 0.000535922
93 5 10.3344 12.7564 1.51484 0.00299662 -0.00391378 -0.00264537
28 2 10.0588 12.0836 9.63169 -0.00592528 -0.00678623 -0.00438488
59 3 7.51785 14.3789 12.0751 -0.0199385 -0.000222701 -0.0246966
68 3 9.00912 12.0503 9.92916 -0.0186957 -0.0184117 0.0110136
83 5 7.6359 14.7249 12.9891 -0.00576768 -0.00578472 0.00559103
112 5 5.78721 12.7914 12.8844 0.00559692 0.00186378 -0.00138066
ITEM: TIMESTEP
10
ITEM: NUMBER OF ATOMS
128
ITEM: BOX BOUNDS xy xz yz pp pp pp
-2.8097637880000002e+00 1.2239000320000001e+01 0.0000000000000000e+00
0.0000000000000000e+00 1.5074000358999999e+01 -2.8097637880000002e+00
0.0000000000000000e+00 1.3358706116000000e+01 0.0000000000000000e+00
ITEM: ATOMS id type x y z vx vy vz
111 5 3.64502 2.28864 0.473553 0.000211997 0.00507378 -0.000104746
27 2 -0.63975 2.98556 3.72182 -0.00693906 -0.00140344 -0.00305455
60 3 1.90397 0.691297 1.25735 0.00293257 -0.00229813 -0.0108213
67 3 0.427439 3.02926 3.44719 0.0157683 0.0141475 0.0120252
84 5 1.78678 0.344021 0.376832 -0.00369206 -0.00222328 0.00424329
6 1 0.266631 0.983229 12.5241 -9.39237e-05 -0.00131224 -0.00427468
10 2 -2.16677 2.46824 11.9149 -0.000401126 5.93069e-05 0.00110343
70 3 1.57459 3.35335 9.08405 0.0144491 -0.0191044 -0.0200109
90 5 1.5227 1.65474 11.2733 0.00385686 0.0021706 0.00224271
94 5 -0.90241 2.32035 11.8467 0.00122685 0.00463455 0.00420142
71 3 2.9599 4.17561 2.42682 -0.00275996 0.0113134 0.00201213
110 5 2.23832 5.25956 7.15928 -0.00166343 0.00611565 0.00624568
3 1 1.66968 6.55475 5.8441 -0.00191569 0.00229451 -0.00492428
11 2 -0.756333 5.06824 5.22806 0.00499663 -0.000506439 -0.00631331
57 3 0.474543 6.82709 7.92908 -0.0215416 -0.0161435 -0.0190004
81 5 0.388768 7.19322 7.04841 0.00314936 0.00246736 -0.00348033
91 5 2.92809 5.88851 4.59033 0.0042944 0.00407034 -0.00135503
95 5 0.499327 5.22588 5.1666 -0.0018476 0.0045894 0.00340313
26 2 -2.04261 4.55281 10.4098 -0.00483545 0.00281092 0.00550463
66 3 -0.969352 4.4984 10.1275 0.0230557 -0.0233773 0.0132035
13 2 0.104841 8.52682 4.36278 3.08023e-05 0.00715949 -0.00414326
37 2 0.217653 9.60028 3.37683 -0.00444057 0.0030717 -0.00200671
45 2 1.39792 9.9722 2.75859 0.00315292 -0.00251901 0.000218283
73 3 2.40159 9.57569 2.77884 0.0030293 0.00535709 -0.00498928
121 5 1.20054 11.0778 1.99505 0.00560027 0.00365192 -0.00205242
36 2 -1.54209 11.2032 8.79408 0.00605914 -0.00331928 -0.00135081
61 3 2.48278 8.43334 7.05212 -0.0246602 -0.0204681 -0.0175711
97 5 1.12529 7.77719 4.51244 0.00227566 0.00280862 0.00592617
104 5 -1.20437 9.22588 7.57527 -0.00468266 -0.00567516 -0.00295937
105 5 -0.982101 8.43345 5.03034 0.00239906 0.00365616 0.00201462
33 2 -0.15057 11.4055 2.12267 -0.00704209 0.00110696 0.00645167
64 3 3.919 14.1485 0.370705 0.00686082 -0.00798177 -0.0203407
101 5 0.204663 13.3735 0.895375 -0.000526136 -0.00588631 -0.00353217
2 1 0.000293069 15.0728 0.00147992 0.000281785 -0.00117153 0.00147753
124 5 -0.216541 11.53 8.67866 -0.00645869 -0.00675866 0.00217166
16 2 -1.30528 14.085 11.0433 -0.00512725 -0.00627447 -0.00295045
40 2 -1.17517 13.0164 10.0608 0.00736678 0.00242632 0.00255468
48 2 -0.00221841 12.6337 9.44105 0.00802962 -0.00249258 0.00334137
76 3 1.01583 13.0437 9.44174 0.0202342 0.00222179 -0.0214756
100 5 -0.286106 14.8372 11.1917 -0.00421672 0.000623579 0.00582278
108 5 -2.38513 14.1849 11.7126 0.00420223 0.00363096 0.00496141
115 5 5.87984 1.84266 0.518713 0.00274235 -0.00131663 -5.24924e-05
23 2 4.8487 2.51175 0.841004 0.00370443 -0.00491559 0.000134932
51 2 5.03826 3.65693 1.73346 -0.00711651 -0.00408891 -0.00252949
87 5 7.93346 0.26471 0.198261 -0.00123315 0.00164875 -0.00531827
54 2 4.83963 3.30764 8.78766 0.00180613 0.00188463 -0.00488845
78 3 5.89125 3.50597 8.48438 0.0224849 0.00465926 -0.02617
18 2 2.73014 1.40937 10.9658 -0.00280626 -0.00497997 -0.00794155
30 2 3.26704 2.25207 9.89788 0.00581925 -0.0037557 -0.0064626
42 2 2.62215 3.18064 9.12785 -0.00134408 -0.00628689 -0.00451088
118 5 3.50783 0.577057 11.5443 -0.00193208 -0.000835785 0.00480485
126 5 4.63136 2.31029 9.68564 0.00403355 0.000824409 0.00058217
8 1 3.3091 0.00492231 13.3573 -0.000637744 0.00491443 -0.0014094
19 2 4.13669 6.12268 4.30005 -0.00113734 -3.72939e-05 0.00556847
31 2 4.66682 5.27706 3.22497 0.000810312 -0.00409463 -1.83266e-05
43 2 4.02966 4.35111 2.44993 0.00102118 0.00100724 -0.00306787
55 2 6.24731 4.23131 2.11403 0.00445645 3.02327e-05 0.000809969
79 3 7.29555 4.03719 1.82097 0.0226144 0.00124272 -0.0105309
127 5 6.0389 5.23308 3.00401 0.00663585 0.00553408 -0.00169808
119 5 4.9106 6.95783 4.85838 -0.00398639 -0.00122158 -0.00168629
22 2 3.43668 5.02684 7.51327 -0.00329127 0.00645111 -0.00686575
50 2 3.64002 3.87631 8.4161 -0.000664088 0.000435591 0.00066256
86 5 6.53391 7.27497 6.8854 0.00409251 0.000978285 0.00241724
114 5 4.47503 5.68925 7.1944 0.00280403 -0.00374936 -0.0037314
21 2 5.99366 10.0519 5.84295 0.00429491 -0.00184155 0.00446492
49 2 5.79137 11.192 4.94243 0.00275202 -0.00607976 -0.000901725
85 5 2.8968 7.80219 6.4695 -0.00257049 0.00206639 -0.00631589
113 5 4.95321 9.3754 6.1657 -0.00373658 -0.00551797 0.00508699
120 5 4.51522 8.12034 8.496 0.000554643 0.00536336 -0.00263845
7 1 4.71835 7.54177 6.68288 0.00372546 0.00476013 0.00351936
20 2 5.28887 8.94495 9.0624 -0.00237084 -0.00627014 -0.00184463
32 2 4.76398 9.79049 10.1375 0.000820144 -0.00229099 0.00382392
44 2 5.40608 10.7245 10.9052 0.00533353 0.000576022 -0.000529414
56 2 3.19324 10.8391 11.2531 0.00681277 -0.00365133 0.00755168
80 3 2.15744 11.0397 11.5358 -0.000313063 0.00186432 0.00904257
128 5 3.3967 9.8516 10.3519 -0.000301233 0.00510915 -0.0010826
17 2 6.70216 13.663 2.38588 0.00589356 0.00329004 0.000900621
29 2 6.17523 12.8148 3.45393 0.0071213 -0.00331934 -0.000442288
41 2 6.80363 11.8803 4.21917 -0.00193095 -0.00680237 -0.00711385
117 5 5.91965 14.4971 1.81708 0.000185072 0.000978304 -0.00215375
125 5 4.80722 12.7702 3.67112 0.00533017 0.00562293 -0.00251293
53 2 4.59515 11.768 4.56705 0.00412275 -0.000142426 0.000783753
77 3 3.58206 11.5897 4.86035 0.0169185 0.0160733 0.013581
24 2 4.58131 12.5529 12.5227 -0.002956 -0.00425601 0.00494026
52 2 4.38181 11.4202 11.6282 -0.00178047 0.00717566 0.00550486
88 5 1.49236 14.8087 13.1482 -0.00215356 -0.00221124 -0.0068822
116 5 3.54949 13.2344 12.8409 -0.00260546 0.00435098 0.000938741
15 2 10.7358 0.978118 2.31683 0.00637186 -0.00444509 0.00447756
39 2 10.6078 2.05337 3.29611 -0.00402933 -0.00665943 -0.00431788
47 2 9.44455 2.44113 3.92756 0.00488971 0.00317649 0.00649395
75 3 8.42146 2.03599 3.90753 -0.0118755 0.00356865 0.0120697
99 5 9.7122 0.243186 2.16933 0.00103799 0.00571696 -0.00354805
107 5 11.8139 0.896849 1.65109 -0.00461786 0.00403405 -3.0705e-06
123 5 9.63936 3.53564 4.68751 0.000114887 -0.00151072 0.00531336
34 2 9.56569 3.66836 11.2354 -0.00691844 -0.00128603 -0.00713856
63 3 5.52981 0.921553 12.9819 0.0123536 0.00360516 0.0145039
102 5 9.22113 1.69364 12.4548 -0.00292528 -0.00098332 -0.00501424
35 2 10.9714 3.86923 4.56325 -0.00597908 0.00180054 -1.39107e-05
62 3 6.93334 6.61203 6.30398 0.0107324 -0.00648688 0.016492
98 5 8.30053 7.30533 8.85653 -0.00566936 0.00571618 0.00430114
103 5 10.6239 5.83723 5.78482 -0.00502523 -0.00518024 0.00436133
106 5 10.4182 6.64554 8.3366 0.00447674 0.00135754 0.0061815
1 1 10.8298 7.53592 6.67387 -0.00433478 -0.00108555 -0.00547954
14 2 9.32422 6.55665 8.98925 -0.000219743 0.00226153 -0.00242594
38 2 9.20901 5.48454 9.9848 0.00195338 0.00765099 0.00492845
46 2 8.02819 5.09667 10.5927 -0.00612038 -0.0025509 -0.00770776
74 3 7.04972 5.5169 10.5603 0.0173482 0.0135346 -0.0143787
122 5 8.23105 4.00066 11.3663 -0.00332304 0.000859409 0.00473509
25 2 11.4724 10.5166 2.94778 0.00524605 -0.00731776 -0.00658324
65 3 10.4002 10.5567 3.26877 -0.0208051 0.00473665 0.0237776
4 1 7.7523 8.52592 7.5085 -0.00532309 0.00436925 -0.00117126
12 2 10.1908 10.0092 8.13177 5.92222e-05 0.00388539 0.00740657
58 3 8.95749 8.25802 5.39777 0.024801 0.0253615 -0.0081427
82 5 9.04728 7.87979 6.30976 0.00359558 -0.00332572 0.00265239
92 5 6.50799 9.18442 8.7709 0.00242374 -0.00515848 0.00390942
96 5 8.92593 9.84806 8.20004 -0.00203277 -0.00462282 0.00452674
109 5 7.18644 9.81727 6.20936 -0.00280061 -0.00327549 0.00365916
72 3 6.4683 10.9098 10.9175 0.0023385 0.00020582 -0.0163468
5 1 9.15968 14.0863 0.831215 -0.00284039 -0.00319692 0.000886912
9 2 11.5889 12.6017 1.44332 -0.00655612 -0.00406979 -0.00159747
69 3 7.85443 11.6778 4.2802 -0.0155687 -0.0233116 0.0252232
89 5 7.91456 13.4229 2.08814 0.00414952 0.001445 0.000492302
93 5 10.3359 12.7544 1.51351 0.00288828 -0.00386345 -0.00265503
28 2 10.0558 12.0802 9.62952 -0.00605665 -0.00669464 -0.00425982
59 3 7.508 14.3791 12.0636 -0.0193694 0.000972527 -0.0208065
68 3 8.9999 12.0412 9.93466 -0.0179832 -0.0179276 0.0109293
83 5 7.63302 14.722 12.9919 -0.00575461 -0.00587069 0.00536041
112 5 5.78998 12.7923 12.8837 0.00549611 0.00183392 -0.00142512
ITEM: TIMESTEP
15
ITEM: NUMBER OF ATOMS
128
ITEM: BOX BOUNDS xy xz yz pp pp pp
-2.8097637880000002e+00 1.2239000320000001e+01 0.0000000000000000e+00
0.0000000000000000e+00 1.5074000358999999e+01 -2.8097637880000002e+00
0.0000000000000000e+00 1.3358706116000000e+01 0.0000000000000000e+00
ITEM: ATOMS id type x y z vx vy vz
111 5 3.64514 2.29117 0.473502 0.000252723 0.00502316 -0.000101755
27 2 -0.64311 2.98488 3.72027 -0.00648048 -0.00133057 -0.00312761
60 3 1.90556 0.69061 1.253 0.00346946 -0.000362489 -0.00634144
67 3 0.434783 3.0361 3.45321 0.0133888 0.0131593 0.0120447
84 5 1.78492 0.342892 0.378881 -0.00371665 -0.00229689 0.00393798
6 1 0.266578 0.982569 12.522 -0.000117525 -0.00132476 -0.00424203
10 2 -2.16696 2.46829 11.9154 -0.000373855 0.000162692 0.000942228
70 3 1.58062 3.34399 9.07396 0.00944411 -0.0183012 -0.0203335
90 5 1.52461 1.65583 11.2744 0.00378706 0.00219789 0.00226069
94 5 -0.901803 2.32266 11.8488 0.00119803 0.00460308 0.00422181
71 3 2.95832 4.18117 2.42771 -0.00354621 0.0109291 0.00154356
110 5 2.23747 5.26262 7.16239 -0.0017157 0.00614934 0.00621298
3 1 1.66872 6.5559 5.84164 -0.00191926 0.00230826 -0.00490534
11 2 -0.753896 5.068 5.2249 0.00473227 -0.000478826 -0.00629185
57 3 0.463918 6.81863 7.92039 -0.0209367 -0.0177617 -0.0155947
81 5 0.390324 7.19447 7.04662 0.00307142 0.00253982 -0.00369018
91 5 2.93019 5.89053 4.58967 0.00410099 0.00401945 -0.00126504
95 5 0.498427 5.22818 5.1683 -0.00174495 0.00460557 0.00338613
26 2 -2.04489 4.55422 10.4125 -0.00422982 0.00279646 0.00532349
66 3 -0.958686 4.487 10.1342 0.0193154 -0.022166 0.0136386
13 2 0.104852 8.53038 4.36075 1.2749e-05 0.00707155 -0.0039593
37 2 0.215523 9.60178 3.37583 -0.0040648 0.00288334 -0.00197025
45 2 1.39952 9.97088 2.75874 0.00321435 -0.00278268 0.000386607
73 3 2.40358 9.57791 2.77659 0.00497282 0.00349465 -0.00400949
121 5 1.20335 11.0797 1.99398 0.00564569 0.00386834 -0.00222265
36 2 -1.53918 11.2015 8.79341 0.00558088 -0.00350168 -0.00134241
61 3 2.47012 8.42385 7.04407 -0.0260513 -0.0173058 -0.014475
97 5 1.12641 7.77862 4.51537 0.00218728 0.00290818 0.00577826
104 5 -1.20672 9.22307 7.57381 -0.00472878 -0.00554833 -0.00286911
105 5 -0.980897 8.43528 5.03132 0.00241685 0.00366998 0.00191896
33 2 -0.154098 11.4061 2.12583 -0.00704872 0.00139831 0.00621334
64 3 3.92218 14.144 0.360983 0.00580192 -0.00989954 -0.0184692
101 5 0.204391 13.3706 0.893618 -0.000565755 -0.00592611 -0.00349644
2 1 0.000429224 15.0722 0.00221771 0.000261518 -0.00118213 0.00147338
124 5 -0.219698 11.5266 8.67969 -0.00615605 -0.00695124 0.00194729
16 2 -1.30781 14.0819 11.0419 -0.00499695 -0.00614347 -0.00279041
40 2 -1.1715 13.0176 10.0621 0.00728429 0.00222585 0.00245307
48 2 0.0018694 12.6325 9.44277 0.00832697 -0.00205607 0.00354172
76 3 1.02564 13.045 9.43124 0.0188158 0.00257729 -0.0205194
100 5 -0.288225 14.8375 11.1946 -0.0042608 0.000564054 0.005693
108 5 -2.38305 14.1867 11.7151 0.00413448 0.00358047 0.00488074
115 5 5.88121 1.842 0.518681 0.00273975 -0.0013157 -7.50351e-05
23 2 4.85053 2.50933 0.841095 0.00358359 -0.00477029 0.000233018
51 2 5.03481 3.6549 1.73221 -0.00669419 -0.00403045 -0.00245873
87 5 7.93284 0.26551 0.195624 -0.00126094 0.0015496 -0.00522243
54 2 4.84069 3.30868 8.7851 0.00242176 0.00230295 -0.00535438
78 3 5.90152 3.50828 8.47147 0.01826 0.00452105 -0.0253647
18 2 2.72875 1.40691 10.9618 -0.00274337 -0.00487799 -0.00791943
30 2 3.26986 2.25012 9.89471 0.0054587 -0.00401594 -0.00621246
42 2 2.62153 3.1775 9.12559 -0.00110864 -0.00629898 -0.0045392
118 5 3.50685 0.576646 11.5467 -0.00196463 -0.000803609 0.00470048
126 5 4.63342 2.31064 9.68598 0.00420846 0.000598387 0.000760932
8 1 3.30878 0.00737607 13.3566 -0.000636181 0.00489954 -0.00141261
19 2 4.13613 6.1226 4.30278 -0.00107064 -0.000260023 0.00532879
31 2 4.66717 5.27509 3.22502 0.000620749 -0.00379447 0.000245011
43 2 4.03011 4.3516 2.44839 0.0007863 0.00096864 -0.0030658
55 2 6.24963 4.23121 2.1143 0.00482129 -0.000441544 0.000297188
79 3 7.30616 4.03772 1.81575 0.019585 0.000932237 -0.0102702
127 5 6.04224 5.2359 3.0032 0.00670241 0.00573683 -0.0015107
119 5 4.90862 6.95723 4.85754 -0.00392051 -0.00114417 -0.00165336
22 2 3.43507 5.03001 7.5099 -0.00315308 0.00621416 -0.00660804
50 2 3.63971 3.87656 8.41641 -0.000583734 0.000564678 0.000563711
86 5 6.53594 7.27546 6.88661 0.00405337 0.000992217 0.00242752
114 5 4.47643 5.68739 7.19252 0.00277823 -0.00371511 -0.00377676
21 2 5.99573 10.051 5.84516 0.00397321 -0.00184468 0.00436014
49 2 5.7927 11.1889 4.94198 0.00254981 -0.0060945 -0.000919908
85 5 2.89554 7.80318 6.4663 -0.00243287 0.00185358 -0.00647644
113 5 4.95137 9.37266 6.16824 -0.0035936 -0.00539873 0.00506179