ITEM: TIMESTEP
0
ITEM: NUMBER OF ATOMS
296
ITEM: BOX BOUNDS xy xz yz pp pp pp
-2.5657479660000000e+00 1.2219990729999999e+01 0.0000000000000000e+00
0.0000000000000000e+00 1.4620910645000000e+01 -2.5657479660000000e+00
0.0000000000000000e+00 1.3745848170000000e+01 0.0000000000000000e+00
ITEM: ATOMS id type x y z vx vy vz
2 1 2.89911 0.805234 0.899995 0.00030914 -0.000895102 0.00215978
12 2 0.541708 1.44158 2.46253 0.000190731 0.00428862 0.00803591
32 2 0.0314544 2.20083 3.60602 0.000256324 -0.00162204 0.00492954
48 2 0.772216 3.12216 4.37965 0.00759863 -0.00308984 0.00357921
72 3 1.7676 3.50311 4.17932 -0.000542562 -0.000325683 -0.0165432
119 3 2.15368 1.29626 4.55567 -0.0157682 -0.00440937 -0.00486868
120 3 3.00953 0.234624 3.84733 0.00281802 0.0226592 -0.00875031
153 3 0.164196 2.70001 1.0756 0.0182604 0.00767377 -0.0201397
212 5 1.79588 1.52125 2.25071 -0.00626299 -0.00164745 -0.00517971
221 5 0.393454 3.31507 0.35187 -0.00102292 -0.00534735 -0.00288045
240 5 -0.300729 0.838025 1.7138 0.0061487 -0.00385017 0.000179675
36 2 -0.14601 3.65026 5.28235 0.00683277 -0.00261906 -0.00059458
86 3 0.106642 0.334462 8.38361 0.0169399 0.00455058 0.0114457
93 3 0.72132 2.02965 6.57351 0.0125129 -0.0150661 -0.00869276
94 3 2.10452 1.47572 7.03085 0.00537057 0.0195715 0.0185606
250 5 -0.856595 0.390077 8.59302 -0.00172267 0.0045435 0.00390959
251 5 1.13979 1.25237 6.99558 -2.11769e-05 -0.00180381 0.000789303
264 5 2.80353 0.589214 4.74804 -0.00631962 -0.00670973 -0.00411145
17 2 -1.53902 2.54107 13.0766 0.00586001 0.00384358 0.00147525
33 2 -1.5978 3.44155 11.8692 -0.006727 0.000854782 0.00745326
85 3 0.927934 2.23371 9.1753 -0.0104472 0.00986539 -0.0228216
92 3 -0.921707 0.266236 9.57905 0.0100867 -0.0199976 0.0178139
103 3 0.674918 1.37628 10.5158 -0.0200909 -0.0196593 0.0196299
104 3 -0.389785 0.662591 12.0897 -0.018244 -0.0224935 -0.0103672
217 5 -0.336018 2.07153 13.388 -0.00102181 -0.000470323 -0.00356236
247 5 1.31738 1.97544 10.0304 0.000550728 -0.00655924 0.00109359
256 5 -0.317256 0.268731 11.1903 0.00581209 0.00452894 0.00609505
78 3 0.579831 6.37637 2.57081 0.0250761 0.00389476 -0.0252731
157 3 0.631105 6.56255 0.716194 -0.00183659 0.00346765 0.0106702
175 3 3.31191 6.44039 3.73113 0.0225105 0.00598094 0.00356174
177 3 2.56333 5.32911 1.49191 -0.00801495 0.0075576 -0.00505345
178 3 2.95797 3.87047 1.13107 0.0127048 -0.0148227 -0.016845
243 5 1.1767 6.98515 2.01865 0.00597956 0.00696278 0.00269708
292 5 2.66919 5.86963 4.2103 0.00360796 4.83576e-05 0.00257494
293 5 3.21528 4.80059 0.995865 -0.00158198 -0.00426599 -0.00570384
3 1 1.81117 6.29512 7.82344 -0.00190247 0.00255455 -0.0043156
5 1 -1.26316 7.27404 6.96012 -0.00286949 -0.0029781 0.00159736
20 2 0.0174479 4.75697 6.21165 -0.0026634 -0.00646742 -0.00141549
51 3 2.84015 6.74856 5.72713 -0.0260577 -0.0134075 -0.00723331
209 5 0.558524 5.57443 9.04665 -0.00357543 0.00642919 0.00669686
220 5 1.21013 5.0198 6.54503 0.00481581 -0.00325927 -0.000849993
224 5 -1.03568 5.3656 6.60128 0.00344941 -0.0033347 -0.00646524
237 5 -1.2892 6.8472 8.83357 -0.000622081 -0.00427924 0.00476798
9 2 -0.63957 5.86797 9.33585 -0.00669242 -0.00370623 -0.00115013
29 2 -1.3266 4.98134 10.2894 0.00669517 -0.00356199 0.00068918
45 2 -0.636827 4.09443 11.1532 0.00290351 -0.00154882 0.000467048
69 3 0.434664 4.0007 11.2319 -0.0198244 -0.0228263 0.0259538
89 3 1.30995 6.74684 12.9096 0.0167222 0.00662485 0.00417239
135 3 -2.09879 5.19146 13.5759 0.0229543 -0.0236449 -0.0140716
158 3 1.09601 5.23352 12.9098 0.0254714 -0.0205059 0.00103264
184 3 -1.83086 6.83936 12.5338 0.00770213 0.0186626 -0.009639
249 5 1.13788 5.99872 12.2802 -0.00364361 -0.000666806 0.000341683
283 5 -2.29743 6.15424 13.5785 -0.00457615 0.00641017 0.00259876
63 3 0.873836 10.7641 1.68786 0.0120717 0.00272007 0.0167762
77 3 0.889861 7.87655 2.35165 0.021643 0.0189695 0.0118669
90 3 2.65424 7.66595 0.239414 0.0161663 0.00930805 0.0105885
105 3 3.76028 8.70275 0.356605 0.00986444 0.0153598 0.0105235
171 3 3.02178 8.78422 3.5606 0.0241726 0.012948 -0.026072
172 3 3.37441 7.98358 2.23823 -0.0131758 0.00594576 0.0134131
195 4 0.0238023 10.2225 1.96945 -0.00617371 0.00147995 0.00273142
199 4 -0.00826196 9.41471 3.04588 0.00519514 0.00627354 0.00258268
257 5 3.59003 7.73987 0.51213 0.00624254 -0.00426594 -0.00486315
55 3 0.973456 8.18953 6.52635 0.0138376 0.00363005 0.00749317
62 3 -0.59368 10.8308 8.56064 0.0108518 -0.00588437 0.017996
138 3 0.134093 10.3076 4.79016 0.0066149 0.000306358 0.00318124
215 5 0.541791 7.55243 7.11911 0.00674085 0.00244666 0.00544779
228 5 2.29521 7.48935 9.15642 -0.000917484 -0.00297064 -0.0062953
273 5 -0.18456 10.8967 5.51477 0.00411745 0.00268494 0.00442541
60 3 1.38345 8.64181 10.9735 0.00242945 -0.00405873 -0.014369
111 3 -1.69283 8.50351 11.8803 0.000980607 0.0212127 0.00128511
113 3 -1.76299 10.6512 11.1499 -0.0151839 -0.0218347 0.0222429
127 3 -0.684006 10.1649 12.7109 0.0260007 0.0209683 -0.00663136
150 3 0.91034 10.4348 12.7899 0.00120291 -0.0137867 0.013884
260 5 -1.55595 7.51573 11.6702 0.00230556 0.00556996 -0.00244174
261 5 -1.96504 9.98941 11.8625 -0.00213234 0.00597725 -0.00271522
279 5 0.116164 10.0921 13.3134 0.000559955 -0.00237953 -0.00366021
54 3 1.8888 13.2607 0.665135 0.00388031 0.00451664 -0.0124189
57 3 2.39939 12.6245 4.00952 -0.0222921 -0.0141986 -0.0217707
149 3 2.51294 11.0723 0.554625 0.013949 0.0174738 0.0142459
151 3 -0.490964 13.7184 4.42042 -0.0135057 -0.0189183 0.0121595
160 3 2.72698 11.7014 2.07312 -0.00662291 0.0113935 -0.0268117
189 4 3.21094 11.9973 3.91009 -0.00592047 0.00573607 0.000924106
214 5 1.63793 14.1886 0.366376 0.00208879 -0.00227882 0.00149881
225 5 3.42327 14.1869 2.28874 -0.00592586 -0.00130105 5.77094e-05
284 5 2.21923 11.789 1.24907 0.000903897 0.00270892 -0.00413712
73 3 1.27112 12.3847 8.35333 -5.0983e-05 0.00879326 -0.00610319
91 3 -1.37154 14.0811 7.83849 0.0183097 0.0172906 -0.00405852
97 3 2.51333 11.3588 6.26569 0.0098317 0.0116276 0.0264651
98 3 1.68486 12.6848 6.37177 -0.0228361 0.0240234 0.0184768
109 3 -1.0736 13.4226 6.28545 -0.0110306 -0.0124078 0.0166779
137 3 0.151183 11.7881 5.2619 -0.0188076 0.0141886 0.000672782
152 3 0.653264 14.4203 5.41585 0.023398 0.00131077 -0.003993
194 4 -1.45962 11.1052 9.03225 0.00572598 -0.000850214 0.0011505
241 5 1.00712 12.9171 9.13029 0.00541634 0.00667326 0.00680107
253 5 2.29808 12.1176 6.88627 0.00365105 -0.00276873 -0.00128015
280 5 0.19791 13.5796 5.19336 0.000938458 -0.00633163 -0.00109821
74 3 0.0560462 12.7452 9.30482 0.0231091 0.010305 -0.0123327
143 3 1.13102 12.4164 10.8819 -0.00611853 0.0170616 0.0271268
144 3 0.0321784 13.9431 11.367 0.00415206 -0.0190562 -0.00907771
159 3 1.40998 12.7413 12.3632 -0.011971 -0.0222619 0.00209307
198 4 -1.55079 12.1156 9.96792 0.00655437 -0.006823 0.00535594
276 5 0.670277 12.5768 11.7377 -0.00213182 0.00103888 -0.00412497
14 2 5.38404 2.32592 1.53231 -0.000269091 0.00263661 -0.00172437
22 2 5.81733 3.58635 2.12737 -0.00343414 0.00702349 -0.0065375
133 3 4.91454 1.6327 3.96259 -0.024018 -0.000508704 0.022738
202 5 4.15342 2.06197 1.69728 0.00156924 0.00442781 -0.00617757
230 5 6.25954 1.57801 0.977587 -0.000983459 -0.000614617 -0.0005124
271 5 5.68643 1.42892 4.51683 -0.0013386 -0.00179593 -0.00404444
87 3 3.90096 1.32357 5.96649 -0.00442484 0.0077876 -0.0198411
88 3 4.29931 2.56451 6.87813 -0.00862727 -0.00865757 -0.0253255
108 3 6.55816 2.6379 7.00127 0.0173666 0.0154743 0.0222806
134 3 5.96894 2.27672 4.94521 0.0250611 0.0248633 -0.0201709
164 3 3.56406 0.827155 8.41405 0.0240693 0.0245979 0.000393406
167 3 6.33916 0.145638 8.45105 -0.0234198 -0.0026727 -0.00218375
168 3 5.49966 0.962304 7.32906 -0.0163846 0.0202443 0.0126158
248 5 3.90034 1.66739 6.90591 0.000692079 -0.00420051 -0.00263201
258 5 6.24588 3.31448 6.36037 0.00429784 0.00257496 -0.00563064
288 5 6.3859 0.85201 7.74061 -0.00495681 0.00154361 0.000813568
27 2 4.98868 0.910252 11.6315 -0.00752411 -0.00119383 -0.00228657
39 2 5.10605 2.04473 10.7191 -0.00386735 -0.00648357 -0.00372902
43 2 4.17323 2.89753 10.1628 0.00142465 0.00134312 -0.00240744
50 3 1.75978 0.988471 12.7451 -0.00267895 0.00153239 0.00433247
67 3 3.10116 2.88679 10.3039 0.0165471 0.0157209 0.0132334
162 3 3.58812 3.55098 13.2845 0.0230106 -0.00640106 0.0241944
163 3 2.45375 0.845406 9.54648 0.0170817 -0.0179962 -0.0111078
187 4 6.21942 3.48881 9.37041 0.00297255 -0.00541689 0.00306041
206 5 1.68152 0.307109 13.4437 -0.00050684 -0.00174847 -0.00202913
235 5 3.87933 0.573988 12.1601 -0.00335008 -0.0061133 0.0056162
285 5 2.82521 3.47653 12.6705 -0.0029078 0.00549101 0.00147054
286 5 3.21336 0.315897 9.17337 -0.00182653 0.00117931 -0.00361519
38 2 6.13854 5.27318 3.56848 0.00230116 0.00791069 0.00570408
42 2 5.3175 4.22632 3.26626 -0.00134732 -0.00605871 -0.003833
66 3 4.45195 3.88495 3.81886 0.0250972 -0.0246155 0.0140517
129 3 7.25039 6.80502 1.66748 -0.0133353 0.00370362 -0.0131383
186 4 6.92644 4.2593 1.71118 -0.00352081 0.00244622 -0.00222672
190 4 7.11335 5.40694 2.57109 0.000840935 0.00176902 -0.0065673
272 5 7.51087 4.13985 0.578014 0.0046766 0.00302813 -0.00313109
7 1 4.83925 7.23943 7.04711 0.00376896 0.00507108 0.00422523
15 2 4.32197 4.83901 8.51332 0.00645396 -0.00435304 0.00526029
26 2 6.25183 6.13122 4.72062 -0.00553988 0.00310812 0.00641229
107 3 6.86695 4.04934 6.57116 -0.018518 0.016995 0.00160672
176 3 3.20664 5.24485 4.72783 -0.0265727 0.0208798 -0.0190606
203 5 3.05435 4.88663 8.38528 -5.58265e-05 0.00574176 0.00416849
207 5 3.05566 6.96274 6.66965 0.00457121 0.00138539 0.00292212
231 5 5.16191 5.60674 7.96318 -0.00661619 0.00230217 0.00521221
234 5 5.22154 6.32364 5.42767 0.00310384 0.00539752 -0.00591575
23 2 4.90346 3.76213 9.33687 0.00381146 -0.00485449 0.000633977
106 3 5.29374 7.13236 13.3225 0.0184814 0.00613838 0.0262344
131 3 4.03655 6.23409 11.5652 -0.00381325 0.0118192 0.0227946
132 3 2.51322 5.87461 11.4158 -0.00752854 -0.0154417 0.0187385
161 3 3.0787 4.17865 12.0146 0.0155776 0.00770979 -0.0159434
245 5 5.47837 7.11696 12.2656 0.00174508 -0.0034314 0.000771744
270 5 3.42867 5.65172 11.0734 0.00114144 0.00295446 0.00702104
21 2 4.6732 10.5528 4.57112 0.0046124 -0.00163991 0.00533576
125 3 6.47792 9.95234 0.78491 0.0229082 0.0213325 -0.00659795
126 3 7.96985 10.5619 0.516128 0.015223 0.0061012 0.00253077
130 3 7.58578 8.34121 0.92909 0.00169052 -0.0166896 -0.0219871
145 3 4.66011 9.46423 2.08856 -0.0153081 0.0226885 -0.00780863
146 3 4.81884 10.9094 1.46343 -0.00116536 0.0259189 0.0136991
267 5 7.4108 9.76576 0.455886 0.00215142 -0.00597364 0.00686318
269 5 7.69152 7.33379 0.93485 -0.00232912 0.00495916 0.00709057
277 5 4.95254 9.96192 1.27217 -0.00434282 0.00449783 0.00460624
290 5 3.73613 8.29125 3.1107 0.00467442 -0.00624073 0.00398447
13 2 5.31503 9.46016 5.32189 0.000124034 0.00746359 -0.00370215
49 3 6.60881 8.34312 8.05857 0.0108802 -0.0201093 -0.00153581
142 3 5.24826 10.7105 8.86785 -0.000234348 -0.0123668 -0.00521391
185 4 3.36084 10.86 4.70774 0.00160876 0.0042233 -0.000743228
201 5 6.53677 9.17122 5.07149 -0.00319354 0.00467063 0.000475744
205 5 6.6125 7.66899 7.35581 -0.00485381 0.00418772 0.00557062
229 5 4.55968 8.89507 6.1593 -0.00331353 0.00464001 -0.00657513
236 5 4.48232 7.96025 8.74535 -0.00275215 0.00130614 0.00176528
275 5 5.89657 10.6017 8.14919 0.00471138 -0.00243044 0.00489712
24 2 3.53464 10.7883 11.7724 -0.0030024 -0.00404402 0.00572729
28 2 3.40709 8.04616 9.40203 -0.00581082 -0.00658343 -0.00381007
40 2 3.38724 8.99198 10.4903 0.00733898 0.00281967 0.00327555
44 2 4.27127 9.96752 10.8975 0.00521075 0.00080159 0.000101123
68 3 5.32658 10.0095 10.6805 -0.0182795 -0.0186387 0.011474
188 4 2.28134 10.3243 11.9064 -0.00088146 -0.00430206 0.00238665
192 4 2.21932 9.21532 11.1195 0.000261142 0.00722496 -0.00282793
8 1 5.98781 14.4577 0.117268 -0.000633928 0.00522792 -0.000744205
25 2 4.48528 13.4865 2.41917 0.00622016 -0.00713845 -0.00624225
37 2 4.3989 12.3718 3.32605 -0.00491244 0.00357586 -0.00142316
41 2 5.3248 11.4052 3.68223 -0.0022065 -0.00644794 -0.0065981
52 3 7.84464 13.6746 1.42354 -0.00559121 0.0257015 0.0209846
65 3 6.36885 11.3631 3.41162 -0.0238615 0.00597248 0.025333
208 5 7.74099 14.056 0.535432 0.00309979 0.00592489 -0.00463915
233 5 5.56984 13.6827 1.79198 -0.00582765 0.00324013 0.00677398
102 3 3.31775 12.087 8.72921 -0.0114041 -0.00331752 -0.0181475
141 3 5.56992 11.2308 7.46603 -0.0112454 -0.0147577 -0.0188813
156 3 6.12554 13.3993 5.20215 0.00129171 0.003139 0.00716957
181 3 3.93002 12.765 6.65686 -0.0105998 0.0148157 -0.0076433
182 3 5.22278 13.4274 7.23863 -0.00981853 -0.0264177 0.00305535
282 5 6.97174 13.2805 4.71061 -0.00412798 -0.0064526 -0.00377563
295 5 4.90557 12.8688 6.50724 0.00668036 0.00101883 0.00192176
16 2 3.98435 12.0208 12.4142 -0.00518527 -0.00606051 -0.00248276
101 3 3.50384 13.4892 9.392 -0.00161701 -0.0225879 -0.0124855
117 3 5.34649 12.8889 9.27128 0.000875568 0.00476084 -0.00712284
204 5 5.19524 12.3462 12.2377 0.00239142 -0.00562938 0.00359179
232 5 3.13273 12.678 13.1104 -0.00189348 0.000988818 0.00503403
255 5 3.85396 12.521 9.41804 0.00156371 -0.00620894 0.00321287
263 5 6.28227 13.318 9.19144 0.00590448 -0.0065008 -0.00455769
56 3 9.89177 0.790611 0.428391 0.0260929 -0.0147259 0.0250798
121 3 8.17953 1.7202 1.22944 0.0218996 0.0134566 -0.00466466
122 3 9.41757 1.46106 2.18411 -0.0115824 0.0061217 0.019088
139 3 9.24642 2.84899 3.53874 -0.0270891 -0.022843 0.0185871
140 3 7.7851 3.19892 3.14846 0.000153527 0.00275747 -0.0105376
170 3 8.22075 1.40246 4.26307 -0.0205574 0.00941395 -0.0131825
200 4 10.9629 2.14353 4.00339 0.0045744 -0.00199463 0.00318675
265 5 9.13527 1.93209 1.3715 0.00324216 -0.00199757 -0.004364
274 5 8.39684 3.18051 3.90846 -0.00089414 0.00523631 0.000861198
289 5 8.61754 0.515852 4.4404 -0.000135305 0.000651743 0.00560766
64 3 10.0072 3.27977 5.50836 0.00781448 -0.00597779 -0.0217671
99 3 9.27784 1.68917 8.47598 0.00454809 0.0237808 -0.0129898
173 3 8.95694 0.861718 6.05144 -0.00318741 -0.018045 -0.0126376
174 3 7.9288 0.979553 7.20988 -2.30322e-05 -0.0133292 -0.0027993
196 4 10.8949 3.03206 5.05328 -0.00272459 -0.00152567 -0.00305873
291 5 8.88445 1.14514 7.00481 -0.00369566 0.00249492 -0.00653976
59 3 7.20063 1.91145 10.3475 -0.020197 -0.000196136 -0.0254239
61 3 8.56578 3.34867 11.5088 -0.0236194 -0.023216 -0.0200448
100 3 10.1552 2.43669 9.51747 -0.0163205 0.00351409 0.0259916
154 3 9.891 1.07253 11.8681 0.00089589 0.0183803 0.001706
191 4 6.3121 2.4157 10.2131 -0.00710869 0.00453705 -0.00584455
227 5 6.09118 0.316892 11.8362 -0.005143 6.4361e-05 -0.00282856
254 5 9.273 2.0461 9.41467 -0.000948953 0.00315471 -0.00208074
281 5 9.71482 1.4412 12.7696 -0.00236304 -0.0028182 0.00416157
58 3 8.05157 5.39552 3.00196 0.0248629 0.026867 -0.0113413
123 3 11.3378 6.36059 3.93307 0.00212032 -0.00748412 0.0211219
124 3 10.8459 5.55671 2.64505 -0.0272388 -0.0244595 0.0124326
136 3 9.48648 3.85658 1.16517 0.00154184 -0.0013224 0.0105473
179 3 10.7336 6.55862 0.517993 0.00901157 0.000633431 -0.0198312
180 3 10.954 4.05024 0.749614 -0.00561401 0.0250715 -0.018986
183 3 9.37434 7.21793 1.05033 -0.0113332 -0.0152302 0.0206818
266 5 11.556 5.61726 3.31627 -0.00216537 -0.000381917 0.000672493
294 5 10.1638 4.55111 1.03559 0.00510887 -0.00277081 0.0049254
53 3 8.80204 6.14845 7.20822 0.0153106 0.00243303 0.00200265
147 3 8.14505 4.32859 8.46575 -0.00610287 0.00700272 0.0149899
148 3 9.34933 4.21485 7.47729 -0.0103307 0.000547308 0.00838672
213 5 9.14213 7.04275 6.91415 -0.0068813 0.0052322 0.000345175
226 5 7.41773 6.60836 4.92237 -0.000391026 -0.00332387 -0.00269903
278 5 8.46467 4.61218 7.58052 0.00651276 -0.00355644 -0.00183021
80 3 8.69907 6.29887 10.2135 0.0005176 0.000407472 0.00830213
82 3 5.94547 6.19479 12.0773 0.0148121 -0.0131071 0.0133762
115 3 6.31734 4.66634 13.1378 0.0114632 -0.00461384 0.00180017
116 3 7.38892 4.7946 11.9966 -0.0104597 0.0185301 0.00550151
193 4 9.41008 3.92397 11.4408 0.000436649 -0.00469472 0.000660945
197 4 9.55369 4.8898 10.4684 0.00671081 -0.00197044 -0.000880461
244 5 8.50759 7.29368 10.1064 -0.0065383 -0.00547692 0.000636554
262 5 6.42932 4.80836 12.1641 -0.00286174 -0.002231 -0.0041619
11 2 10.3238 8.44304 4.40012 0.0051862 -0.000186966 -0.00555986
31 2 10.8619 9.19522 3.27352 0.0013009 -0.00434016 0.000199882
35 2 10.9857 10.3735 1.33042 -0.00670812 0.00162215 0.000553545
47 2 10.0769 9.81121 2.33932 0.00567069 0.0045194 0.00774714
71 3 8.99814 9.84117 2.33811 -0.000792208 0.0122766 0.00342671
128 3 10.7594 8.61374 0.358154 0.000288085 0.0234271 -0.000713713
268 5 10.9134 9.60571 0.0617979 -0.00688115 -0.00592111 -0.00195445
296 5 10.3624 7.34314 0.975511 -0.004701 -0.00665139 0.00242323
1 1 7.83957 8.04443 6.02414 -0.0043703 -0.00081381 -0.0048514
18 2 9.52056 9.6851 7.58825 -0.00277919 -0.00497649 -0.00726695
34 2 9.56598 10.5902 8.7098 -0.0075316 -0.000439509 -0.00677459
165 3 8.96272 10.6278 4.60587 0.0114337 -0.00841245 -0.00469684
211 5 9.08682 8.59726 4.63826 0.00385478 0.0053217 -0.00450627
218 5 8.4045 9.5954 6.96923 -0.000805425 0.000946523 -0.00616858
222 5 10.616 9.11613 7.28876 0.00502516 0.00332124 -0.00187764
239 5 11.0939 7.6506 5.05171 -0.0038991 -0.000853859 -0.00189599
79 3 8.73499 7.45656 9.16696 0.0241168 0.00297544 -0.00908978
81 3 6.08172 7.91938 11.9517 0.0133567 0.0104287 -0.0111929
95 3 7.69108 8.44277 10.9963 -0.0073704 0.0189535 0.0154843
96 3 7.41683 9.33597 12.3414 -0.00801646 -0.0177244 0.0200348
112 3 9.96356 7.40868 10.9397 0.0229789 0.00828937 -0.00353322
114 3 9.45003 10.265 12.3496 0.0117845 -0.0142761 -0.0128646
252 5 7.01439 8.96088 11.519 0.00360161 0.00313337 -0.00399226
6 1 12.0453 14.313 0.171447 -5.41613e-05 -0.0010199 -0.00367332
19 2 10.749 11.7933 0.850035 -0.00110199 0.000577762 0.00653128
83 3 9.9067 14.3487 3.75273 -0.0228194 -0.022267 0.0245145
84 3 10.0211 12.7889 3.82027 -0.01424 -0.00792644 0.0200466
169 3 7.83242 14.4743 4.51981 -0.0129912 -0.00718165 0.0219126
219 5 9.56925 12.0549 0.45452 2.82574e-05 0.00592027 1.63907e-05
223 5 11.7497 12.5656 0.806411 -0.000989589 0.00610692 -0.00454324
246 5 10.5108 13.5915 3.49466 -0.00340725 -0.00667979 0.00536744
75 3 7.52696 12.8692 7.85515 -0.0121873 0.00561413 0.0144616
76 3 8.00842 11.6084 7.08656 0.0201461 0.000669035 -0.0226294
110 3 9.62072 13.1261 6.94792 -0.00623186 0.0251913 0.0268437
155 3 7.51073 12.7642 5.35866 -0.00820255 0.0245908 -0.00842959
166 3 10.3028 11.1885 5.16397 -0.00586694 -0.0175544 -0.0192371
242 5 8.05745 12.5875 7.06735 0.00563807 0.00187439 0.00406504
259 5 10.6039 13.2692 7.11309 0.000746629 -0.00652053 0.00685148
287 5 9.42248 11.4724 4.79601 0.00304293 -0.00310407 0.00104428
4 1 6.4416 13.5174 13.0231 -0.00539072 0.00470814 -0.000487037
10 2 8.80964 12.9417 11.4073 -0.000480259 0.000175237 0.00204849
30 2 9.33109 12.1794 10.2547 0.00647759 -0.00303956 -0.00626917
46 2 8.61742 11.2107 9.51822 -0.00609511 -0.00305654 -0.00660993
70 3 7.54551 11.0519 9.51601 0.0200668 -0.0199445 -0.0188586
118 3 6.67936 13.2078 10.0892 -0.0072221 -0.00266478 0.0215779
210 5 7.5496 12.8373 11.6159 -0.00346565 -0.00037614 0.001728
216 5 7.71725 14.6076 13.7393 0.00649441 0.00345333 -0.0042521
238 5 9.61553 13.5909 12.1332 -0.00507307 -0.00432218 -0.00342705
ITEM: TIMESTEP
5
ITEM: NUMBER OF ATOMS
296
ITEM: BOX BOUNDS xy xz yz pp pp pp
-2.5657479660000000e+00 1.2219990729999999e+01 0.0000000000000000e+00
0.0000000000000000e+00 1.4620910645000000e+01 -2.5657479660000000e+00
0.0000000000000000e+00 1.3745848170000000e+01 0.0000000000000000e+00
ITEM: ATOMS id type x y z vx vy vz
2 1 2.89927 0.804779 0.901078 0.000339299 -0.000929457 0.00217108
12 2 0.541796 1.44367 2.46657 0.00015045 0.00406695 0.00809998
32 2 0.0316002 2.20001 3.60847 0.000333494 -0.00168668 0.00488502
48 2 0.776014 3.12063 4.38139 0.00758649 -0.0030265 0.00339709
72 3 1.76747 3.50276 4.17112 9.32187e-05 -0.00104764 -0.0162536
119 3 2.14613 1.29385 4.55341 -0.0143419 -0.00530384 -0.00412681
120 3 3.01097 0.245736 3.843 0.00295014 0.0217164 -0.00863633
153 3 0.172772 2.70389 1.06595 0.0159224 0.00756125 -0.0181116
212 5 1.79273 1.52043 2.24813 -0.00630404 -0.00162019 -0.00511558
221 5 0.392944 3.31245 0.350451 -0.00101293 -0.0051107 -0.00281647
240 5 -0.297645 0.836099 1.71392 0.0061868 -0.00385285 0.000315433
36 2 -0.142619 3.64894 5.28206 0.00672006 -0.00264504 -0.000559851
86 3 0.114607 0.336897 8.38906 0.014654 0.00521451 0.010411
93 3 0.727612 2.02189 6.56944 0.0125144 -0.0157554 -0.0076849
94 3 2.10724 1.48541 7.03996 0.00532601 0.0190937 0.0178927
250 5 -0.85744 0.392374 8.595 -0.00164124 0.00463852 0.00401222
251 5 1.13978 1.25149 6.99598 -1.16622e-05 -0.00174927 0.000812135
264 5 2.80035 0.585877 4.74597 -0.00639451 -0.00662771 -0.0041711
17 2 -1.53615 2.5429 13.0774 0.0056099 0.0034756 0.00152873
33 2 -1.60121 3.44198 11.8729 -0.0069082 0.000859792 0.00730381
85 3 0.922527 2.23851 9.16407 -0.0109617 0.00916359 -0.0215904
92 3 -0.916597 0.256095 9.58787 0.0103508 -0.0205184 0.0172344
103 3 0.664908 1.36645 10.5252 -0.0197022 -0.0194431 0.0177806
104 3 -0.398987 0.651249 12.0847 -0.0185947 -0.0227124 -0.00918039
217 5 -0.336548 2.07134 13.3862 -0.00109438 -0.000288358 -0.00367291
247 5 1.31766 1.97216 10.031 0.00055458 -0.00654349 0.0011261
256 5 -0.314338 0.270995 11.1934 0.00586569 0.00450606 0.00598791
78 3 0.592659 6.37827 2.55818 0.0260343 0.00356459 -0.0250349
157 3 0.630289 6.56404 0.72119 -0.00143337 0.00248565 0.00925121
175 3 3.3229 6.44369 3.73292 0.0212213 0.0070578 0.00371499
177 3 2.55941 5.33294 1.48947 -0.00755804 0.00757399 -0.00484179
178 3 2.9642 3.86321 1.12264 0.0122269 -0.0140827 -0.0168815
243 5 1.17968 6.98865 2.02003 0.00597295 0.00704689 0.00278671
292 5 2.67099 5.86968 4.21157 0.00357019 0.000212946 0.0024703
293 5 3.21448 4.79846 0.993012 -0.0016387 -0.00428864 -0.00570069
3 1 1.8102 6.29638 7.82127 -0.00196491 0.00251125 -0.0043491
5 1 -1.26459 7.27254 6.96092 -0.00285599 -0.00300396 0.00160111
20 2 0.016118 4.75373 6.21095 -0.00263584 -0.00650393 -0.00139202
51 3 2.8272 6.74187 5.72382 -0.025612 -0.0133013 -0.00572682
209 5 0.556747 5.57763 9.05 -0.00352815 0.0063638 0.00671832
220 5 1.21255 5.01817 6.5446 0.00482753 -0.00327801 -0.000847508
224 5 -1.03397 5.36394 6.59805 0.00339017 -0.00328825 -0.00647469
237 5 -1.28951 6.84505 8.83595 -0.000625545 -0.00433505 0.00476339
9 2 -0.642938 5.86615 9.33526 -0.00676615 -0.00355302 -0.00120612
29 2 -1.3232 4.97957 10.2897 0.006875 -0.00355507 0.000637498
45 2 -0.635353 4.09367 11.1534 0.00296312 -0.00146637 0.000292616
69 3 0.424953 3.98907 11.2448 -0.0187225 -0.023664 0.0257451
89 3 1.31819 6.75023 12.9118 0.0161852 0.00675961 0.00444778
135 3 -2.08737 5.17992 13.5692 0.0225713 -0.0218676 -0.0125866
158 3 1.10875 5.22368 12.9103 0.0254963 -0.0186308 0.00103117
184 3 -1.82721 6.84938 12.5286 0.00689739 0.0213797 -0.0113411
249 5 1.13608 5.99837 12.2804 -0.00352803 -0.000733986 0.00040932
283 5 -2.29972 6.15744 13.5798 -0.00456743 0.00634306 0.00258201
63 3 0.879666 10.7655 1.69636 0.011095 0.00264296 0.0172376
77 3 0.900864 7.88614 2.35749 0.0223673 0.0192327 0.0114472
90 3 2.66214 7.67063 0.245041 0.015119 0.00936763 0.0118252
105 3 3.76539 8.71039 0.361748 0.0105377 0.0149217 0.0100816
171 3 3.03373 8.79064 3.54761 0.0233752 0.0129405 -0.0256542
172 3 3.36792 7.98633 2.24476 -0.0127564 0.00496149 0.0126159
195 4 0.0207329 10.2233 1.97076 -0.00608752 0.00155517 0.00251264
199 4 -0.00571784 9.41783 3.04718 0.00497637 0.00621682 0.00260207
257 5 3.59312 7.73775 0.509684 0.00615162 -0.00418045 -0.00491843
55 3 0.980268 8.19125 6.53013 0.013372 0.00324086 0.00764395
62 3 -0.588075 10.8278 8.56982 0.0115859 -0.0061312 0.0186804
138 3 0.137483 10.3077 4.79188 0.00693763 0.000135279 0.0036992
215 5 0.545188 7.55365 7.12184 0.00684154 0.00241037 0.00546315
228 5 2.29474 7.48784 9.15327 -0.000977658 -0.00307515 -0.00629933
273 5 -0.1825 10.898 5.51696 0.00412299 0.00263057 0.00431277
60 3 1.38447 8.63978 10.9663 0.00173072 -0.00396175 -0.0142712
111 3 -1.69205 8.51396 11.8811 0.00214887 0.0204296 0.00200378
113 3 -1.77067 10.6403 11.161 -0.0154171 -0.0212022 0.021774
127 3 -0.671337 10.1752 12.7075 0.0245006 0.0203096 -0.00724676
150 3 0.910771 10.4279 12.7967 0.000694379 -0.0139004 0.0132902
260 5 -1.5548 7.5185 11.669 0.00230662 0.00552753 -0.00241583
261 5 -1.96607 9.99241 11.8612 -0.00198733 0.00601774 -0.00270786
279 5 0.116502 10.0909 13.3116 0.000792041 -0.00242057 -0.00360651
54 3 1.8907 13.263 0.65898 0.00375848 0.00439 -0.0121574
57 3 2.38847 12.6175 3.99859 -0.0214487 -0.013912 -0.0219365
149 3 2.51995 11.0811 0.561773 0.0141091 0.0175538 0.0142551
151 3 -0.497015 13.7089 4.42705 -0.0107133 -0.0188585 0.0143065
160 3 2.72395 11.707 2.0604 -0.00527216 0.0112542 -0.0236848
189 4 3.20797 12.0002 3.91054 -0.00592624 0.00564731 0.000878823
214 5 1.63898 14.1875 0.367128 0.00213318 -0.00237179 0.00150711
225 5 3.42031 14.1862 2.28877 -0.0059251 -0.00128455 3.42041e-05
284 5 2.21963 11.7903 1.24697 0.000698019 0.00277207 -0.00428687
73 3 1.27116 12.3889 8.3501 0.000200376 0.00825816 -0.00671101
91 3 -1.36247 14.0897 7.83612 0.0179654 0.0168032 -0.00538282
97 3 2.51798 11.3646 6.27909 0.00881157 0.011192 0.0268017
98 3 1.67362 12.6967 6.38091 -0.021853 0.0233879 0.0182036
109 3 -1.079 13.4164 6.2938 -0.0104811 -0.0121827 0.0165381
137 3 0.141692 11.7954 5.26241 -0.0191526 0.014742 0.00135463
152 3 0.664784 14.4209 5.41363 0.0225159 0.001107 -0.00497842
194 4 -1.45667 11.1047 9.03283 0.00605507 -0.000887149 0.00113184
241 5 1.00985 12.9205 9.1337 0.00551596 0.00671571 0.00684784
253 5 2.29991 12.1163 6.88563 0.0036546 -0.00270562 -0.00126237
280 5 0.198368 13.5765 5.1928 0.000903803 -0.00637628 -0.00116804
74 3 0.0669045 12.7503 9.29859 0.019964 0.0100145 -0.0125269
143 3 1.12811 12.4248 10.8951 -0.0052577 0.0162913 0.0250826
144 3 0.0342459 13.934 11.3626 0.00406511 -0.0171055 -0.00848432
159 3 1.40414 12.7302 12.3644 -0.011294 -0.0218708 0.00315301
198 4 -1.54754 12.1122 9.97059 0.00642528 -0.00676941 0.00529903
276 5 0.669207 12.5773 11.7356 -0.00217146 0.00109393 -0.00396378
14 2 5.38394 2.32722 1.53144 -0.000134541 0.00256096 -0.00176372
22 2 5.81566 3.58995 2.12417 -0.00327812 0.00736908 -0.00627126
133 3 4.90252 1.63246 3.97406 -0.0239815 -0.000459047 0.0231634
202 5 4.15416 2.06416 1.69418 0.00139417 0.00435511 -0.00621779
230 5 6.25906 1.57772 0.977339 -0.000960366 -0.000562654 -0.000481393
271 5 5.68578 1.42803 4.5148 -0.00125794 -0.00175188 -0.00406055
87 3 3.89858 1.32761 5.95708 -0.00511551 0.00835723 -0.0176322
88 3 4.29482 2.56008 6.86513 -0.00925892 -0.0088904 -0.0266259
108 3 6.56665 2.64555 7.01234 0.0165042 0.0152702 0.0218317
134 3 5.98132 2.28895 4.93521 0.0243124 0.023713 -0.0199402
164 3 3.576 0.839663 8.41374 0.0235577 0.025252 -0.00137235
167 3 6.32729 0.144155 8.44989 -0.02401 -0.00324681 -0.00243784
168 3 5.49099 0.972458 7.33523 -0.0181965 0.0203669 0.0120714
248 5 3.90069 1.66527 6.9046 0.000701969 -0.00429648 -0.00263831
258 5 6.24805 3.31578 6.35755 0.00439222 0.00261215 -0.00562949
288 5 6.38346 0.852798 7.74102 -0.00482386 0.0016067 0.00082369
27 2 4.98494 0.909629 11.6304 -0.00743374 -0.00130452 -0.00214802
39 2 5.10412 2.04149 10.7172 -0.00386271 -0.00647745 -0.00370844
43 2 4.17393 2.8982 10.1616 0.00138906 0.00134727 -0.00237188
50 3 1.75838 0.988961 12.7472 -0.0029039 0.000455775 0.00398889
67 3 3.10939 2.89471 10.3105 0.016158 0.0159308 0.0133171
162 3 3.5994 3.54761 13.2966 0.0216846 -0.00706537 0.0237956
163 3 2.46199 0.836566 9.54094 0.0155713 -0.0171426 -0.0108921
187 4 6.22091 3.4861 9.37195 0.00298801 -0.00540791 0.00309659
206 5 1.68127 0.306249 13.4426 -0.000511887 -0.00169262 -0.00204502
235 5 3.87766 0.570953 12.1629 -0.00331422 -0.00602659 0.0055237
285 5 2.82376 3.4793 12.6712 -0.0028556 0.00561512 0.00140908
286 5 3.21246 0.316495 9.17158 -0.00172425 0.00120943 -0.00355844
38 2 6.13971 5.27724 3.57128 0.00236254 0.00830881 0.00550334
42 2 5.31677 4.22321 3.26435 -0.00155933 -0.00634919 -0.00380142
66 3 4.46435 3.87272 3.82599 0.0244465 -0.0242997 0.0145306
129 3 7.2437 6.80686 1.66098 -0.013497 0.00358539 -0.0127662
186 4 6.92291 4.26093 1.71347 -0.0101641 0.00397438 0.0105822
190 4 7.11372 5.40772 2.56787 0.000681818 0.00135592 -0.0063009
272 5 7.5148 4.14103 0.573378 0.0106869 0.00177857 -0.0147022
7 1 4.84113 7.24195 7.04921 0.00376147 0.00501308 0.00417994
15 2 4.32515 4.83686 8.51592 0.00625641 -0.0042181 0.00514424
26 2 6.2491 6.13278 4.72382 -0.00535959 0.0031265 0.00636799
107 3 6.85773 4.05779 6.57193 -0.0183379 0.0168171 0.00149228
176 3 3.19354 5.25479 4.71852 -0.0253383 0.0182951 -0.0177099
203 5 3.05435 4.8895 8.38738 4.48433e-05 0.0057614 0.00423359
207 5 3.05795 6.96343 6.67111 0.00456223 0.00135767 0.00289101
231 5 5.1586 5.6079 7.96578 -0.00661708 0.00233943 0.00516518
234 5 5.22306 6.32635 5.42473 0.00295668 0.00544963 -0.00582007
23 2 4.90534 3.75973 9.33718 0.00372808 -0.00474258 0.000592636
106 3 5.30293 7.13563 13.3349 0.0182503 0.00694494 0.0234625
131 3 4.03509 6.24047 11.5769 -0.00216007 0.0135949 0.0238237
132 3 2.50954 5.86723 11.4252 -0.00712141 -0.0140681 0.0187615
161 3 3.08631 4.18238 12.0068 0.0148027 0.00705191 -0.0149356
245 5 5.47921 7.11521 12.2659 0.00164649 -0.00356133 0.00066578
270 5 3.42922 5.65316 11.077 0.00105828 0.00283991 0.00703596
21 2 4.6755 10.552 4.57379 0.00457881 -0.00165921 0.00532336
125 3 6.48937 9.96318 0.78161 0.0226696 0.0220396 -0.00651845
126 3 7.97725 10.5651 0.517492 0.0142214 0.00644399 0.00288326
130 3 7.58624 8.33277 0.918481 0.000105569 -0.0167834 -0.0203887
145 3 4.6526 9.47549 2.0846 -0.0147601 0.0221785 -0.00779802
146 3 4.81814 10.9221 1.47009 -0.00154192 0.0246809 0.0128719
267 5 7.41189 9.7628 0.459313 0.00225244 -0.00586699 0.00684029
269 5 7.69039 7.33623 0.938415 -0.00216513 0.0047893 0.00715822
277 5 4.95036 9.96418 1.27448 -0.00435287 0.00460254 0.00460868
290 5 3.73848 8.28811 3.1127 0.00475451 -0.00635921 0.00400431
13 2 5.31512 9.46386 5.32003 0.000236365 0.00732767 -0.00373772
49 3 6.61426 8.33313 8.05797 0.010907 -0.0195296 -0.000541712
142 3 5.24805 10.7042 8.86525 -0.000671009 -0.0129981 -0.00512826
185 4 3.36166 10.8622 4.70734 0.00166041 0.00442836 -0.000853834