LAMMPS (29 Oct 2020)
variable Tini   equal 300
variable nprint equal 5

units            real
newton           on

atom_style       charge
atom_modify      map array
atom_modify      sort 0 0.0

read_data        data.lammps
Reading data file ...
  triclinic box = (0.0000000 0.0000000 0.0000000) to (12.219991 14.620911 13.745848) with tilt (0.0000000 -2.5657480 0.0000000)
  3 by 4 by 3 MPI processor grid
  reading atoms ...
  296 atoms
  read_data CPU = 0.008 seconds
neighbor         1.0 bin
neigh_modify     delay 0 every 1 check no page 100000 one 10000

pair_style       chimesFF
pair_coeff       * * ../../../1-fit/ChIMES_params.txt

velocity         all create ${Tini} 12357
velocity         all create 300 12357
fix              1 all nvt temp ${Tini} ${Tini} 100
fix              1 all nvt temp 300 ${Tini} 100
fix              1 all nvt temp 300 300 100
thermo_style     custom time step temp etotal pe ke press vol density enthalpy pxx pyy pzz lx ly lz
thermo_modify    format float %20.15g flush yes
thermo           1
dump             dump_1 all custom ${nprint} dump_xyz_vxyz id type x y z vx vy vz
dump             dump_1 all custom 5 dump_xyz_vxyz id type x y z vx vy vz
atom_modify      sort 0 0.0

restart          ${nprint} restart.a restart.b
restart          5 restart.a restart.b

timestep         0.1
run              500
Neighbor list info ...
  update every 1 steps, delay 0 steps, check no
  max neighbors/atom: 10000, page size: 100000
  master list distance cutoff = 7
  ghost atom cutoff = 7
  binsize = 3.5, bins = 5 5 4
  1 neighbor lists, perpetual/occasional/extra = 1 0 0
  (1) pair chimesFF, perpetual
      attributes: full, newton on, ghost
      pair build: full/bin/ghost
      stencil: full/ghost/bin/3d
      bin: standard
Per MPI rank memory allocation (min/avg/max) = 3.854 | 3.856 | 3.857 Mbytes
Time Step Temp TotEng PotEng KinEng Press Volume Density Enthalpy Pxx Pyy Pzz Lx Ly Lz 
                   0        0                  300    -39530.9707060776    -39794.7723955026        263.801689425      74688.417403407     2455.93485086791     1.75348366276207    -36855.8339502229     67462.9161463948     61248.6955715444     95353.6404922818          12.21999073         14.620910645          13.74584817 
                 0.1        1      300.73853787352    -39530.9751176038    -39795.4262321579      264.45111455413     74382.2459504247     2455.93485086791     1.75348366276207    -36866.8045936756     67658.6208289377     60997.8991050134     94490.2179173232          12.21999073         14.620910645          13.74584817 
                 0.2        2     301.738466470504    -39530.9822365167    -39796.3126272481     265.330390731426      73835.205831566     2455.93485086791     1.75348366276207    -36886.4052075341     67697.2424506392     60752.9158446464     93055.4591994123          12.21999073         14.620910645          13.74584817 
                 0.3        3     302.872311029652    -39530.9911010129    -39797.3185254451     266.327424432255     73073.4489705741     2455.93485086791     1.75348366276207    -36913.6981389406     67591.5506128023     60515.5454929032     91113.2508060167          12.21999073         14.620910645          13.74584817 
                 0.4        4     303.980258915971    -39531.0005411996    -39798.3022273792     267.301686179607     72132.2953635058     2455.93485086791     1.75348366276207    -36947.4171514373     67360.7459850169     60287.2658137291     88748.8742917714          12.21999073         14.620910645          13.74584817 
                 0.5        5     304.890263839577    -39531.0093721666    -39799.1112611336     268.101888967048       71054.02908553     2455.93485086791     1.75348366276207    -36986.0465591026     67028.4293738721     60069.9214996224     86063.7363830953          12.21999073         14.620910645          13.74584817 
                 0.6        6     305.438483180178    -39531.0165713712    -39799.6005309656     268.583959594468      69885.136834739     2455.93485086791     1.75348366276207    -37027.9203118163       66621.11551085      59865.226710525      83169.068282842          12.21999073         14.620910645          13.74584817 
                 0.7        7     305.487088920964    -39531.0213973037      -39799.64809782     268.626700516252     68672.6532437914     2455.93485086791     1.75348366276207    -37071.3530149589     66166.1132092224     59674.6951163437     80177.1514058082          12.21999073         14.620910645          13.74584817 
                 0.8        8     304.937290829604    -39531.0234576272     -39799.166699259     268.143241631774     67462.2616487879     2455.93485086791     1.75348366276207    -37114.7080228658     65690.1105809349     59499.6684079615     77197.0059574673          12.21999073         14.620910645          13.74584817 
                 0.9        9     303.736479762399    -39531.0227041544    -39798.1100258254     267.087321671078     66295.7574006328     2455.93485086791     1.75348366276207    -37156.4882911174      65217.813708804     59340.7321502879     74328.7263428066          12.21999073         14.620910645          13.74584817 
                   1       10      301.87950487063    -39531.0193715165    -39796.4737828087     265.454411292182     65209.4613336655     2455.93485086791     1.75348366276207    -37195.3931404643     64770.8461227425     59198.2892195582     71659.2486586957          12.21999073         14.620910645          13.74584817 
                 1.1       11     299.404980235665    -39531.0138997409    -39794.2923651023     263.278465361424         64233.236173     2455.93485086791     1.75348366276207    -37230.3534090281      64366.972863753     59072.4464390931     69260.2892161537          12.21999073         14.620910645          13.74584817 
                 1.2       12     296.388069070336    -39531.0068360214     -39791.632413842     260.625577820561     63390.0678842918     2455.93485086791     1.75348366276207    -37260.5463489894     64019.8696146043     58962.9528609909     67187.3811772802          12.21999073         14.620910645          13.74584817 
                 1.3       13     292.931331036589    -39530.9987473898    -39788.5846807664     257.585933376554     62696.2531606158     2455.93485086791     1.75348366276207    -37285.3888239872     63739.2185453205     58869.6075655889     65479.9333709379          12.21999073         14.620910645          13.74584817 
                 1.4       14     289.155127742067     -39530.990147438    -39785.2555181189     254.265370680863     62161.9295076216     2455.93485086791     1.75348366276207    -37304.5182496268     63530.9118979506     58791.7994298533     64163.0771950609          12.21999073         14.620910645          13.74584817 
                 1.5       15     285.188799954593    -39530.9814582704    -39781.7590823808     250.777624110367     61792.2581551931     2455.93485086791     1.75348366276207    -37317.7501867416     63397.7587315415     58728.9114366494     63250.1042973885          12.21999073         14.620910645          13.74584817 
                 1.6       16     281.163403197495    -39530.9729787706    -39778.2109146638     247.237935893272     61588.5444069587     2455.93485086791     1.75348366276207    -37325.0381817758     63340.7016042424     58679.8184198363     62745.1131967976          12.21999073         14.620910645          13.74584817 
                 1.7       17     277.202216774188    -39530.9674169869    -39774.7221273115      243.75471032462     61530.3767215663     2455.93485086791     1.75348366276207    -37327.1160288875     63346.6784935174     58642.9331828815     62601.5184883001          12.21999073         14.620910645          13.74584817 
                 1.8       18     273.390059627583    -39530.9650857141      -39771.36761772     240.402532005859     61486.5247111232     2455.93485086791     1.75348366276207    -37328.6843578192       63330.59285919     58614.0202333781     62514.9610408016          12.21999073         14.620910645          13.74584817 
                 1.9       19      269.77288926653    -39530.9629873929    -39768.1848005582     237.221813165247     61431.7802340241     2455.93485086791     1.75348366276207    -37330.6430583469     63276.0135900857     58591.4059640182     62427.9211479684          12.21999073         14.620910645          13.74584817 
                   2       20     266.386435833831    -39530.9611484274    -39765.2051211369     234.243972709563     61365.4748833619     2455.93485086791     1.75348366276207     -37333.016097399     63182.3446362405     58574.5418246669     62339.5381891782          12.21999073         14.620910645          13.74584817 
                 2.1       21     263.260922388783     -39530.959592168    -39762.4551791205     231.495586952483     61287.1106125548     2455.93485086791     1.75348366276207    -37335.8213370053     63049.1847891898      58562.878925869     62249.2681226056          12.21999073         14.620910645          13.74584817 
                 2.2       22     260.420600907429    -39530.9583309304    -39759.9563125319     228.997981601512     61196.3573803774     2455.93485086791     1.75348366276207    -37339.0706106639     62876.4737574307     58556.0065297737     62156.5918539277          12.21999073         14.620910645          13.74584817 
                 2.3       23     257.883425626309    -39530.9573724445    -39757.7243169609     226.766944516422     61093.0317374305     2455.93485086791     1.75348366276207    -37342.7704967652     62664.5203396513     58553.5498357708     62061.0250368695          12.21999073         14.620910645          13.74584817 
                 2.4       24     255.660874840616    -39530.9567152692    -39755.7692842786     224.812569009427     60977.3148698651     2455.93485086791     1.75348366276207    -37346.9145042709      62414.060991182     58555.3614495684     61962.5221688449          12.21999073         14.620910645          13.74584817 
                 2.5       25     253.757922699935    -39530.9563483085    -39754.0955773525     223.139229044072     60849.5974106229     2455.93485086791     1.75348366276207    -37351.4886306716     62125.9818310715     58561.3887097096     61861.4216910878          12.21999073         14.620910645          13.74584817 
                 2.6       26     252.173162037263    -39530.9562540065    -39752.7019412501     221.745687243581     60710.7145781335     2455.93485086791     1.75348366276207      -37356.46294315     61802.0686500101     58571.9219345965      61758.153149794          12.21999073         14.620910645          13.74584817 
                 2.7       27     250.899085598578    -39530.9564060666    -39751.5817482536     220.625342186976     60561.3536761664     2455.93485086791     1.75348366276207    -37361.8127980507     61443.8619381101     58586.8966556901     61653.3024346991          12.21999073         14.620910645          13.74584817 
                 2.8       28     249.922473081659    -39530.9567762374    -39750.7233449848     219.766568747386     60402.5229859287     2455.93485086791     1.75348366276207    -37367.5020532211     61053.3315424093     58606.4222069323     61547.8152084447          12.21999073         14.620910645          13.74584817 
                 2.9       29     249.224877107944    -39530.9573308148    -39750.1104762409     219.153145426045     60235.5982754349     2455.93485086791     1.75348366276207    -37373.4813986743     60632.6000281813     58631.2884501592     61442.9063479643          12.21999073         14.620910645          13.74584817 
                   3       30     248.783207692413    -39530.9580304041    -39749.7227987036     218.764768299431     60062.0479635181     2455.93485086791     1.75348366276207    -37379.6982002315     60184.2664288033     58662.1490279513     61339.7284337998          12.21999073         14.620910645          13.74584817 
                 3.1       31     248.570376642467    -39530.9588368149    -39749.5364544792     218.577617664305     59883.6418773624     2455.93485086791     1.75348366276207    -37386.0890292875     59711.4036648997      58699.921706659     61239.6002605284          12.21999073         14.620910645          13.74584817 
                 3.2       32     248.555994203311    -39530.9597072156    -39749.5246778407     218.564970625146     59702.0660697112     2455.93485086791     1.75348366276207    -37392.5934531696     59216.6554700618     58745.1830190918     61144.3597199802          12.21999073         14.620910645          13.74584817 
                 3.3       33     248.707091044286    -39530.9606028521     -39749.658438817     218.697835964866     59519.0603580972     2455.93485086791     1.75348366276207    -37399.1491175733     58702.8404158714     58798.9408087428     61055.3998496775          12.21999073         14.620910645          13.74584817 
                 3.4       34     248.988838061301     -39530.961482677    -39749.9070697721      218.94558709513     59336.7835155436     2455.93485086791     1.75348366276207    -37405.6786600504     58173.4386917133     58862.4845306518     60974.4273242658          12.21999073         14.620910645          13.74584817 
                 3.5       35     249.365273130004    -39530.9623052994    -39750.2389064181     219.276601118739     59157.1426920449     2455.93485086791     1.75348366276207    -37412.1137302644     57631.5201211218     58936.7793987756     60903.1285562373          12.21999073         14.620910645          13.74584817 
                 3.6       36     249.799996947863    -39530.9630385205    -39750.6219092312     219.658870710687     58982.0233400517     2455.93485086791     1.75348366276207    -37418.3867642179     57080.3356733395     59022.5497069524     60843.1846398632          12.21999073         14.620910645          13.74584817 
                 3.7       37     250.256823876368    -39530.9636472449     -39751.024223674     220.060576429068     58813.2226169121     2455.93485086791     1.75348366276207    -37424.4333575083     56523.0923361028     59120.5810445193     60795.9944701143          12.21999073         14.620910645          13.74584817 
                 3.8       38     250.700403035056    -39530.9641021295    -39751.4147349967     220.450632867254     58652.9299369774     2455.93485086791     1.75348366276207    -37430.1750619025     55963.2234960908      59232.203837653     60763.3624771885          12.21999073         14.620910645          13.74584817 
                 3.9       39     251.096772718908    -39530.9643762207    -39751.7635523955     220.799176174711     58502.7515913995     2455.93485086791     1.75348366276207    -37435.5543174497     55403.8887761188     59357.9290654448     60746.4369326348          12.21999073         14.620910645          13.74584817 
                   4       40     251.413863104831    -39530.9644473189    -39752.0424534253       221.0780061064     58364.8150399385     2455.93485086791     1.75348366276207    -37440.4949021056     54848.9153365403      59498.755319177     60746.7744640983          12.21999073         14.620910645          13.74584817 
                 4.1       41     251.621939594534    -39530.9642939174    -39752.2252697889     221.260975871445     58240.6706383581     2455.93485086791     1.75348366276207    -37444.9412648207     54301.3701933943     59655.2268817972     60765.4148398827          12.21999073         14.620910645          13.74584817 
                 4.2       42     251.693993711041    -39530.9639010649    -39752.2882369286      221.32433586366     58131.7708167649     2455.93485086791     1.75348366276207    -37448.8413685321     53763.7970525081     59827.7184035886      60803.796994198          12.21999073         14.620910645          13.74584817 
                 4.3       43     251.606072948847     -39530.963255424    -39752.2102791356     221.247023711652     58039.3891497608     2455.93485086791     1.75348366276207    -37452.1495839109     53239.0418707345     60016.5106952312     60862.6148833168          12.21999073         14.620910645          13.74584817 
                 4.4       44     251.337548006771    -39530.9623454094    -39751.9732446765     221.010899267077     57964.9974599671     2455.93485086791     1.75348366276207    -37454.8131826732     52729.9598159555     60222.2520423884     60942.7805215573          12.21999073         14.620910645          13.74584817 
                 4.5       45     250.871345704404    -39530.9611644438    -39751.5621138609      220.60094941715     57909.3420213913     2455.93485086791     1.75348366276207    -37456.8054287284     52238.6086338724     60444.8036700241     61044.6137602774          12.21999073         14.620910645          13.74584817 
                 4.6       46     250.194118850712    -39530.9597062549    -39750.9651437117     220.005437456724     57873.1206854182     2455.93485086791     1.75348366276207    -37458.1013206585      51767.403710107     60683.9813444446     61167.9770017029          12.21999073         14.620910645          13.74584817 
                 4.7       47     249.296370478779    -39530.9579688986    -39750.1739812313     219.216012332742     57856.9728848485     2455.93485086791     1.75348366276207    -37458.6779537689     51318.6036755945     60939.4851942062     61312.8297847447          12.21999073         14.620910645          13.74584817 
                 4.8       48      248.17253444899    -39530.9559500723     -39749.183729594     218.227779521758      57861.316326708     2455.93485086791     1.75348366276207     -37458.520364623     50894.0091446784     61210.9833702114     61478.9564652343          12.21999073         14.620910645          13.74584817 
                 4.9       49      246.82101423612    -39530.9536526331      -39747.99298777     217.039335136935     57886.3364347165     2455.93485086791     1.75348366276207    -37457.6219147027     50495.4080108495     61497.6385644516     61665.9627288484          12.21999073         14.620910645          13.74584817 
                   5       50     245.244184785405     -39530.951077848    -39746.6038454081     215.652767560156     57932.1998612606     2455.93485086791     1.75348366276207    -37455.9766362379     50124.3197760537      61798.778740353     61873.5010673752          12.21999073         14.620910645          13.74584817 
                 5.1       51     243.448350627832    -39530.9482311406    -39745.0218517517     214.073620611173      57998.740160141     2455.93485086791     1.75348366276207    -37453.5904963041     49781.9505765698     62113.6091533153     62100.6607505379          12.21999073         14.620910645          13.74584817 
                 5.2       52     241.443669346794    -39530.9451210334    -39743.2559472822     212.310826248851      58085.623349827     2455.93485086791     1.75348366276207    -37450.4754657376     49469.3999251271     62441.0226549022     62346.4474694518          12.21999073         14.620910645          13.74584817 
                 5.3       53      239.24402118303    -39530.9417552191    -39741.3183451288     210.376589909713     58192.1606927419     2455.93485086791     1.75348366276207    -37446.6562209449     49187.5082902355      62779.263887252     62609.7099007382          12.21999073         14.620910645          13.74584817 
                 5.4       54     236.866839225639    -39530.9381456317      -39739.22438682     208.286241188278     58317.9895970746     2455.93485086791     1.75348366276207    -37442.1457609162     48937.1691184446     63127.5021959481      62889.297476831          12.21999073         14.620910645          13.74584817 
                 5.5       55     234.331379348267    -39530.9349372058    -39736.9916497304     206.056712524544     58485.2427633875     2455.93485086791     1.75348366276207     -37436.151997217     48731.2677431113     63485.6582207861      63238.802326265          12.21999073         14.620910645          13.74584817 
                 5.6       56     231.655709110838    -39530.9314702699    -39734.6353616978     203.703891427951     58739.6114541897     2455.93485086791     1.75348366276207    -37427.0377329451     48595.4618177843     63856.0005863534     63767.3719584313          12.21999073         14.620910645          13.74584817 
                 5.7       57     228.859165853558    -39530.9276126126    -39732.1723945879     201.244781975216     59073.3870790326     2455.93485086791     1.75348366276207    -37415.0789367142     48526.7402102359     64236.3416787522     64457.0793481096          12.21999073         14.620910645          13.74584817 
                 5.8       58     225.966703194561    -39530.9232996886    -39729.6246265437     198.701326855076     59472.4159368608     2455.93485086791     1.75348366276207    -37400.7824912034     48518.2386252765     64622.7517906491     65276.2573946569          12.21999073         14.620910645          13.74584817 
                 5.9       59     223.009933854899    -39530.9184956011    -39727.0198199661     196.101324364933     59918.0463656764     2455.93485086791     1.75348366276207    -37384.8164125154     48560.8307289855     65011.4578726455     66181.8504953982          12.21999073         14.620910645          13.74584817 
                   6       60      220.02761779647    -39530.9132248335     -39724.392082483     193.478857649557     60386.5201616261     2455.93485086791     1.75348366276207    -37368.0316796268     48642.2488199017     65397.7759822398     67119.5356827369          12.21999073         14.620910645          13.74584817 
                 6.1       61     217.065073661093     -39530.907603078    -39721.7813802345     190.873777156528     60850.5072038573     2455.93485086791     1.75348366276207    -37351.4072991123     48747.8133486082     65776.9569580855     68026.7513048783          12.21999073         14.620910645          13.74584817 
                 6.2       62     214.172091352519    -39530.9018359447    -39719.2317010329     188.329865088267     61281.7333640334     2455.93485086791     1.75348366276207    -37335.9561792553     48862.2469382609     66144.1589314916     68838.7942223478          12.21999073         14.620910645          13.74584817 
                 6.3       63     211.399364101903    -39530.8961787715    -39716.7878767497     185.891697978176     61654.4783764173     2455.93485086791     1.75348366276207    -37322.5998056276     48971.1285415567     66494.7400189915     69497.5665687038          12.21999073         14.620910645          13.74584817 
                 6.4       64     208.794138125499    -39530.8908637339     -39714.491684999     183.600821265144     61949.3683046701     2455.93485086791     1.75348366276207     -37312.032332314     49063.1616938408     66824.8533059989     69960.0899141706          12.21999073         14.620910645          13.74584817 
                 6.5       65     206.396238821109     -39530.886032509    -39712.3782874823     181.492254973248     62155.9612155595     2455.93485086791     1.75348366276207    -37304.6279027493     49131.9392921091     67131.2092804521     70204.7350741175          12.21999073         14.620910645          13.74584817 
                 6.6       66      204.23566999089    -39530.8816828255    -39710.4740654403     179.592382614812     62274.7335383104     2455.93485086791     1.75348366276207    -37300.3694502582     49177.0109916501     67411.8855186553     70235.3041046259          12.21999073         14.620910645          13.74584817 
                 6.7       67     202.332491627634    -39530.8776884812    -39708.7965322043     177.918843723132     62316.2652073694     2455.93485086791     1.75348366276207    -37298.8779040512     49203.1489217772     67665.8599531681      70079.786747163          12.21999073         14.620910645          13.74584817 
                 6.8       68     200.698806850842    -39530.8738516298    -39707.3561326726      176.48228104278     62299.5155770727     2455.93485086791     1.75348366276207    -37299.4739935768     49219.9069818902     67893.0190703725     69785.6206789555          12.21999073         14.620910645          13.74584817 
                 6.9       69     199.341938290367    -39530.8699775199    -39706.1591111674      175.28913364751      62248.263844364     2455.93485086791     1.75348366276207    -37301.3058176747     49239.5957388364     68093.8139353363     69411.3818589192          12.21999073         14.620910645          13.74584817 
                   7       70     198.267577767918    -39530.8659364831    -39705.2103430611     174.344406577932     62187.7819855937     2455.93485086791     1.75348366276207    -37303.4680729538     49275.3747549144     68269.1413011676      69018.829900699          12.21999073         14.620910645          13.74584817 
                 7.1       71     197.481912000082    -39530.8616870158    -39704.5152270708     173.653540055002     62141.3203050506     2455.93485086791     1.75348366276207    -37305.1279550035     49339.5731154915     68419.7998319293     68664.5879677312          12.21999073         14.620910645          13.74584817 
                 7.2       72      196.99230499736    -39530.8572629912    -39704.0802725313     173.223009540095     62128.4743147409     2455.93485086791     1.75348366276207    -37305.5836395477     49442.7411171061     68546.4749214409     68396.2069056757          12.21999073         14.620910645          13.74584817 
                 7.3       73     196.806735433914    -39530.8527355687     -39703.912566561     173.059830992285     62163.9512254692     2455.93485086791     1.75348366276207    -37304.3084253016     49592.5834034112     68649.5186178368     68249.7516551597          12.21999073         14.620910645          13.74584817 
                 7.4       74     196.932568246658    -39530.8481759778    -39704.0186566654     173.170480687575     62258.3373692588     2455.93485086791     1.75348366276207    -37300.9232097633     49794.5121837808     68729.6714126586     68250.8285113369          12.21999073         14.620910645          13.74584817 
                 7.5       75      197.37366177559    -39530.8443474617    -39704.4026988763     173.558351414664     62395.2090128565     2455.93485086791     1.75348366276207    -37296.0170098039     50038.7584675804     68784.7142354667     68362.1543355225          12.21999073         14.620910645          13.74584817 
                 7.6       76     198.125180312586    -39530.8407659067    -39705.0599568537     174.219190946977      62521.399227304     2455.93485086791     1.75348366276207    -37291.4936366584     50294.4235645044     68810.1904428425     68459.5836745652          12.21999073         14.620910645          13.74584817 
                 7.7       77     199.173920053097    -39530.8372938645    -39705.9786825292      175.14138866469     62634.2851708191     2455.93485086791     1.75348366276207    -37287.4468959646     50559.1711380367     68805.7459742916     68537.9384001289          12.21999073         14.620910645          13.74584817 
                 7.8       78     200.502012029716    -39530.8339080987    -39707.1431397872     176.309231688502     62733.5402877154     2455.93485086791     1.75348366276207    -37283.8884608264     50831.8974510735     68771.5601723558      68597.163239717          12.21999073         14.620910645          13.74584817 
                 7.9       79      202.08739231874    -39530.8305802142    -39708.5338985648     177.703318350588     62819.2628114226     2455.93485086791     1.75348366276207    -37280.8147843933     51111.8107981322     68708.2860526693     68637.6915834662          12.21999073         14.620910645          13.74584817 
                   8       80     203.904200418914     -39530.827278652    -39710.1281871566     179.300908504544     62891.7155766052     2455.93485086791     1.75348366276207    -37278.2164210807     51398.2485933964     68616.6722251683     68660.2259112509          12.21999073         14.620910645          13.74584817 
                 8.1       81     205.923244377967    -39530.8239720606    -39711.9003045898     181.076332529283     62951.5557969446     2455.93485086791     1.75348366276207    -37276.0697999235     51690.8394619326     68498.0694986989     68665.7584302022          12.21999073         14.620910645          13.74584817 
                 8.2       82     208.112518214523    -39530.8206198624    -39713.8220661807     183.001446318274     62999.2282089623     2455.93485086791     1.75348366276207    -37274.3589510872     51988.7648746095     68353.7256630173     68655.1940892603          12.21999073         14.620910645          13.74584817 
                 8.3       83     210.437779233449    -39530.8171884273    -39715.8633273628      185.04613893543     63035.3768905444     2455.93485086791     1.75348366276207    -37273.0607718166     52291.6203616114       68185.01160748     68629.4987025417          12.21999073         14.620910645          13.74584817 
                 8.4       84     212.863141739375    -39530.8136423071    -39717.9924969976     187.178854690534     63060.8331604128     2455.93485086791     1.75348366276207     -37272.145451079      52598.666641687     67993.7014862123     68590.1313533392          12.21999073         14.620910645          13.74584817 
                 8.5       85     215.351681625837    -39530.8099440444    -39720.1770688225     189.367124778035     63076.1493137559     2455.93485086791     1.75348366276207    -37271.5931697001     52909.4252055915     67781.2941152848     68537.7286203916          12.21999073         14.620910645          13.74584817 
                 8.6       86     217.866075318109    -39530.8060556037    -39722.3841847281     191.578129124371     63082.0495805253     2455.93485086791     1.75348366276207    -37271.3779496895     53223.6435502986     67549.2738768869     68473.2313143905          12.21999073         14.620910645          13.74584817 
                 8.7       87     220.369251218056    -39530.8019453169    -39724.5812145457     193.779269228818      63079.263370651     2455.93485086791     1.75348366276207    -37271.4736338916      53540.519571086     67299.4085326612     68397.8620082058          12.21999073         14.620910645          13.74584817 
                 8.8       88      222.82500511539    -39530.7975825799    -39726.7362918985     195.938709318581     63068.5672446387     2455.93485086791     1.75348366276207    -37271.8523774091     53859.6633400123      67033.364869391     68312.6735245127          12.21999073         14.620910645          13.74584817 
                 8.9       89     225.198583927259    -39530.7929388857    -39728.8188285395     198.025889653762     63050.7606949468     2455.93485086791     1.75348366276207     -37272.485516081     54180.3179358297     66753.1208835606     68218.8432654499          12.21999073         14.620910645          13.74584817 
                   9       90     227.457258980628     -39530.787987766    -39730.8000184029     200.012030636898     63026.9456619799     2455.93485086791     1.75348366276207    -37273.3335549195      54502.276350681     66461.1428281983     68117.4178070603          12.21999073         14.620910645          13.74584817 
                 9.1       91     229.570845782589    -39530.7827106057    -39732.6533004729     201.870589867244     62997.7525530477     2455.93485086791     1.75348366276207    -37274.3738958273     54824.9949298754     66158.9247562415     68009.3379730262          12.21999073         14.620910645          13.74584817 
                 9.2       92     231.512184775795    -39530.7770869588    -39734.3547718466     203.577684887759     62963.7868327756     2455.93485086791     1.75348366276207    -37275.5848322562     55147.6262030995     65848.3488470434      67895.385448184          12.21999073         14.620910645          13.74584817 
                 9.3       93     233.257573025093    -39530.7711032288    -39735.8835760128     205.112472783983      62925.347575773     2455.93485086791     1.75348366276207    -37276.9556385675     55469.0003876165     65530.9230196162     67776.1193200866          12.21999073         14.620910645          13.74584817 
                 9.4       94     234.787131794561    -39530.7647510269    -39737.2222244358     206.457473408851     62882.9405530966     2455.93485086791     1.75348366276207    -37278.4681910233     55788.2693461493     65208.3006322046     67652.2516809359          12.21999073         14.620910645          13.74584817 
                 9.5       95     236.085113397433    -39530.7580233788    -39738.3568625866     207.598839207785      62837.068358889     2455.93485086791     1.75348366276207    -37280.1044810888      56104.670334378     64882.0988350943     67524.4359071949          12.21999073         14.620910645          13.74584817 
                 9.6       96     237.140143454767    -39530.7509200536    -39739.2774882997     208.526568246181     62787.8083332759     2455.93485086791     1.75348366276207    -37281.8617384193     56417.0917280976      64553.586713828     67392.7465579022          12.21999073         14.620910645          13.74584817 
                 9.7       97     237.945384639287    -39530.7434450721    -39739.9780932678     209.234648195751     62735.3060839281     2455.93485086791     1.75348366276207    -37283.7347517636     56724.0280099061     64224.5322643876     67257.3579774906          12.21999073         14.620910645          13.74584817 
                 9.8       98     238.498609837994    -39530.7356060568     -39740.456726726     209.721120669255     62679.6189468399     2455.93485086791     1.75348366276207     -37285.721475124     57024.3045742741     63896.0744411287     67118.4778251169          12.21999073         14.620910645          13.74584817 
                 9.9       99     238.802201621648    -39530.7274172204    -39740.7154979744     209.988080754001      62620.666976282     2455.93485086791     1.75348366276207    -37287.8247861526     57316.4557706456     63569.4844217184     66976.0607364819          12.21999073         14.620910645          13.74584817 
                  10      100     238.863066903574    -39530.7188951604    -39740.7604971284     210.041601967999     62558.0428751539     2455.93485086791     1.75348366276207    -37290.0592897258     57598.8639973548      63245.690210268      66829.574417839          12.21999073         14.620910645          13.74584817 
                10.1      101     238.692466927319    -39530.7100610841    -39740.6016478456     209.891586761493     62491.5366721257     2455.93485086791     1.75348366276207    -37292.4325276547     57870.1310271909     62925.7059725507     66678.7730166353          12.21999073         14.620910645          13.74584817 
                10.2      102     238.305760279039    -39530.7009427989    -39740.2524833366     209.551540537732     62421.1766561456     2455.93485086791     1.75348366276207    -37294.9435145134     58129.3142424163     62610.9203708728     66523.2953551477          12.21999073         14.620910645          13.74584817 
                10.3      103      237.72206918432    -39530.6915670139    -39739.7298452286     209.038278214767     62346.1888428471     2455.93485086791     1.75348366276207     -37297.619999034     58374.2365425926     62301.9292208625     66362.4007650861          12.21999073         14.620910645          13.74584817 
                10.4      104     236.963866179677    -39530.6819692329    -39739.0535300025     208.371560769595     62266.0504196005     2455.93485086791     1.75348366276207    -37300.4807424524     58603.0330472445     61999.5191513262     66195.5990602307          12.21999073         14.620910645          13.74584817 
                10.5      105     236.056481395203    -39530.6721824312    -39738.2458444038     207.573661972586     62180.0708825379     2455.93485086791     1.75348366276207    -37303.5505097213     58813.8544904651     61703.9126563552     66022.4455007933          12.21999073         14.620910645          13.74584817 
                10.6      106      235.02755875246    -39530.6622450488    -39737.3311352499     206.668890201108     62087.4457343981     2455.93485086791     1.75348366276207    -37306.8581541932     59004.9698847469     61415.3761562111     65841.9911622363          12.21999073         14.620910645          13.74584817 
                10.7      107     233.906466918944    -39530.6521949171    -39736.3352653859     205.683070468834     61987.5083677479     2455.93485086791     1.75348366276207    -37310.4275897717     59174.6102514656     61134.4162655547     65653.4985862233          12.21999073         14.620910645          13.74584817 
                10.8      108     232.723678059405    -39530.6420667535    -39735.2850648911      204.64299813757     61879.5404964705     2455.93485086791     1.75348366276207    -37314.2845782368     59321.0977054442     60861.1488390702     65456.3749448972          12.21999073         14.620910645          13.74584817 
                10.9      109     231.510131635828    -39530.6318992023    -39734.2077786841     203.575879481786     61762.7205314261     2455.93485086791     1.75348366276207    -37318.4585853296     59442.4610647598      60595.925687228     65249.7748422906          12.21999073         14.620910645          13.74584817 
                  11      110      230.29658703721    -39530.6217277771    -39733.1304902078     202.508762430759     61636.4716081517     2455.93485086791     1.75348366276207    -37322.9703082862     59537.2850145709     60339.0192373308     65033.1105725535          12.21999073         14.620910645          13.74584817 
                11.1      111     229.112990206738    -39530.6115829122    -39732.0795625313      201.46797961917     61500.1461764805     2455.93485086791     1.75348366276207    -37327.8429710332     59604.1917043521     60090.4858541597     64805.7609709297          12.21999073         14.620910645          13.74584817 
                11.2      112     227.987875667895     -39530.601494574    -39731.0801171394     200.478622565359      61353.302270756     2455.93485086791     1.75348366276207    -37333.0924335496     59641.7891307909     59850.5159419287     64567.6017395485          12.21999073         14.620910645          13.74584817 
                11.3      113     226.947810713942    -39530.5914858418    -39730.1555387673     199.564052925477     61195.3845656074     2455.93485086791     1.75348366276207    -37338.7386091647     59648.6735409408     59619.3099470613     64318.1702088202          12.21999073         14.620910645          13.74584817 
                11.4      114     226.016889680701    -39530.5815782229    -39729.3270360108     198.745457787843     61026.1936582182     2455.93485086791     1.75348366276207    -37344.7886614546     59623.9492048114     59397.2706123774     64057.3611574659          12.21999073         14.620910645          13.74584817 
                11.5      115     225.216289696104    -39530.5717863867    -39728.6132454129     198.041459026208      60845.639835751     2455.93485086791     1.75348366276207    -37351.2458183594     59566.9670084232     59184.8377527177     63785.1147461122          12.21999073         14.620910645          13.74584817 
                11.6      116     224.563905942668    -39530.5621201256    -39728.0299126975     197.467792571842     60653.6634345692     2455.93485086791     1.75348366276207    -37358.1122266613     59476.9575157833      58982.359368531     63501.6734193935          12.21999073         14.620910645          13.74584817 
                11.7      117     224.074067669968    -39530.5525835124    -39727.5896422047     197.037058692231     60450.4444687784     2455.93485086791     1.75348366276207    -37365.3814428155     59353.8486397059     58790.4098547705      63207.074911859          12.21999073         14.620910645          13.74584817 
                11.8      118     223.757351740502    -39530.5431752893     -39727.301733324     196.758558034694     60236.3088967193     2455.93485086791     1.75348366276207    -37373.0417906198     59197.1096988022     58609.4862103934     62902.3307809622          12.21999073         14.620910645          13.74584817 
                11.9      119     223.620460365543    -39530.5338922428    -39727.1720763575     196.638184114755      60011.507842229     2455.93485086791     1.75348366276207    -37381.0842722849     59006.5589603659      58440.178238544     62587.7863277772          12.21999073         14.620910645          13.74584817 
                  12      120     223.666168469891    -39530.5247239399    -39727.2031009718     196.678377031913     59776.8030306914     2455.93485086791     1.75348366276207    -37389.4815944386     58782.6439803075     58283.3656984157     62264.3994133511          12.21999073         14.620910645          13.74584817 
                12.1      121     223.893377146075    -39530.5156534364    -39727.3938239104     196.878170474011      59532.879539314     2455.93485086791     1.75348366276207    -37398.2092025272     58525.7472817338     58139.7189838228     61933.1723523855          12.21999073         14.620910645          13.74584817 
                12.2      122     224.297242708798    -39530.5066644833    -39727.7399696831     197.233305199833     59280.7382612267     2455.93485086791     1.75348366276207    -37407.2312310213     58236.6825712219     58009.6896126008     61595.8425998575          12.21999073         14.620910645          13.74584817 
                12.3      123     224.869365226125    -39530.4977344038    -39728.2341292257     197.736394821931     59021.0693677873     2455.93485086791     1.75348366276207    -37416.5229371762     57916.0210067089     57893.8571671668     61253.3299294864          12.21999073         14.620910645          13.74584817 
                12.4      124     225.598041673978    -39530.4888416144    -39728.8659900297     198.377148415223     58754.8317413559     2455.93485086791     1.75348366276207    -37426.0499548402     57564.7255175023     57792.7704402051     60906.9992663603          12.21999073         14.620910645          13.74584817 
                12.5      125     226.468572152789    -39530.4799587025    -39729.6225984877     199.142639785244     58483.2776554908     2455.93485086791     1.75348366276207    -37435.7674035544      57184.087140629     57707.2810653725     60558.4647604711          12.21999073         14.620910645          13.74584817 
                12.6      126      227.46361190715    -39530.4710596978    -39730.4886767106     200.017617012729     58207.7947617258     2455.93485086791     1.75348366276207    -37445.6255554305     56775.6862392207     57638.2468096972     60209.4512362597          12.21999073         14.620910645          13.74584817 
                12.7      127     228.563564018491    -39530.4621168254     -39731.446964589      200.98484776359     57929.7079966996     2455.93485086791     1.75348366276207    -37455.5769270526       56341.10342179     57586.2121851142     59861.8083831946          12.21999073         14.620910645          13.74584817 
                12.8      128     229.747009547639    -39530.4530978861    -39732.4785954161     202.025497530029     57650.5638223403     2455.93485086791     1.75348366276207    -37465.5660961453     55882.3264468142     57551.8795927356     59517.4854274712          12.21999073         14.620910645          13.74584817 
                12.9      129     230.991154013227    -39530.4439805095    -39733.5635027459     203.119522236399      57371.759885111     2455.93485086791     1.75348366276207    -37475.5429804285     55401.4053682836     57535.7650492592     59178.1092377903          12.21999073         14.620910645          13.74584817 
                  13      130     232.272278108615    -39530.4347353588    -39734.6807999309     204.246064572154      57094.670762962     2455.93485086791     1.75348366276207    -37485.4583169074     54900.4030212948     57538.2544747951     58845.3547927961          12.21999073         14.620910645          13.74584817 
                13.1      131     233.566191860811     -39530.425338627    -39735.8091919785     205.383853351485     56820.8152341841     2455.93485086791     1.75348366276207    -37495.2576832516     54381.6926137587     57559.6746732754     58521.0784155183          12.21999073         14.620910645          13.74584817 
                13.2      132     234.848684694163    -39530.4157662049    -39736.9273654768     206.511599271864     56551.6340030502     2455.93485086791     1.75348366276207     -37504.889453228     53847.7039988268     57600.3254925776     58206.8725177462          12.21999073         14.620910645          13.74584817 
                13.3      133     236.095967190076    -39530.4059959884    -39738.0143793589     207.608383370572     56288.3529139725     2455.93485086791     1.75348366276207     -37514.309698307     53300.3660915106     57660.1898546092     57904.5027957977          12.21999073         14.620910645          13.74584817 
                13.4      134     237.285096586273    -39530.3960103195    -39739.0500415023     208.654031182777     56032.3694041425     2455.93485086791     1.75348366276207    -37523.4683484166     52742.2321414288     57739.4642232835     57615.4118477153          12.21999073         14.620910645          13.74584817 
                13.5      135     238.394376855076    -39530.3857922347    -39740.0152567806     209.629464545964     55784.9016407827     2455.93485086791     1.75348366276207    -37532.3217551436     52175.8729098462     57837.5705804378     57341.2614320641          12.21999073         14.620910645          13.74584817 
                13.6      136     239.403716062261    -39530.3753307604    -39740.8923465999     210.517015839491     55546.8642119384     2455.93485086791     1.75348366276207    -37540.8371494487     51603.4260518234     57954.0183455848      57083.148238407          12.21999073         14.620910645          13.74584817 
                13.7      137     240.294958953788    -39530.3646142046    -39741.6653346457     211.300720441068     55319.5344169875     2455.93485086791     1.75348366276207    -37548.9687702367     51027.5049364121     58088.6792175746     56842.4190969759          12.21999073         14.620910645          13.74584817 
                13.8      138     241.052187943481    -39530.3536358086    -39742.3202172055     211.966581396943      55104.076276259     2455.93485086791     1.75348366276207    -37556.6749186945     50450.9973890063     58241.2262939394     56620.0051458314          12.21999073         14.620910645          13.74584817 
                13.9      139     241.661985162755    -39530.3423901725     -39742.845190025     212.502799852447      54900.999007398     2455.93485086791     1.75348366276207    -37563.9373506258     49875.9939685851     58410.5551525793     56416.4479010298          12.21999073         14.620910645          13.74584817 
                  14      140      242.11364115576    -39530.3308773376    -39743.2308359034     212.899958565759      54710.957686576     2455.93485086791     1.75348366276207    -37570.7326030181     49304.7037818487     58595.4937187571     56232.6755591224          12.21999073         14.620910645          13.74584817 
                14.1      141     242.399330679212    -39530.3190953274     -39743.470271823     213.151176495552     54534.7962001277     2455.93485086791     1.75348366276207     -37577.030448173     48739.6711610931     58795.5260950083     56069.1913442818          12.21999073         14.620910645          13.74584817 
                14.2      142     242.514246950743     -39530.307053187    -39743.5592800377     213.252226850793     54372.7050219466     2455.93485086791     1.75348366276207    -37582.8240728766     48182.7521765833     59009.4102691494     55925.9526201073          12.21999073         14.620910645          13.74584817 
                14.3      143     242.456671379956     -39530.294754643    -39743.4963530509     213.201598407981     54224.7108395095     2455.93485086791     1.75348366276207    -37588.1125249825     47635.6811039522     59235.5800202139     55802.8713943625          12.21999073         14.620910645          13.74584817 
                14.4      144     242.228003110716       -39530.2822123    -39743.2827337889     213.000521488837     54090.8469332933     2455.93485086791     1.75348366276207    -37592.8946250787     47100.3144257478     59472.3952098762     55699.8311642559          12.21999073         14.620910645          13.74584817 
                14.5      145     241.832735499413    -39530.2694349241    -39742.9223822008     212.652947276714     53971.4546798595     2455.93485086791     1.75348366276207    -37597.1581547479     46579.0519009587     59718.5216776265     55616.7904609934          12.21999073         14.620910645          13.74584817 
                14.6      146     241.278418705386    -39530.2564336713    -39742.4219485923     212.165514920911     53866.4042312161     2455.93485086791     1.75348366276207    -37600.9077759492     46072.9759403019     59972.6828467011     55553.5539066453          12.21999073         14.620910645          13.74584817 
                14.7      147     240.575560315065    -39530.2432302466    -39741.7906943982     211.547464151601     53774.9405700821     2455.93485086791     1.75348366276207    -37604.1705530612     45583.0285832781     60232.6966051913     55509.0965217771          12.21999073         14.620910645          13.74584817 
                14.8      148     239.737443436926    -39530.2298403633    -39741.0403156869     210.810475323638     53696.6584508759     2455.93485086791     1.75348366276207    -37606.9610165957     45110.6371535436     60497.0076133781     55482.3305857059          12.21999073         14.620910645          13.74584817 
                14.9      149     238.779914291668    -39530.2162848403    -39740.1847674766     209.968482636329     53631.1432024305     2455.93485086791     1.75348366276207    -37609.2940397696     44657.2971384293     60763.5529170996     55472.5795517628          12.21999073         14.620910645          13.74584817 
                  15      150     237.721145389545    -39530.2025816799    -39739.2400475659     209.037465886026     53577.7311353883     2455.93485086791     1.75348366276207    -37611.1934121398     44223.6740343593     61030.3676281437     55479.1517436621          12.21999073         14.620910645          13.74584817 
                15.1      151      236.58135361676    -39530.1887555545     -39738.223958123     208.035202568516     53535.4952503002     2455.93485086791     1.75348366276207    -37612.6923609873     43810.6944898361     61295.3593659256      55500.431895139          12.21999073         14.620910645          13.74584817 
                15.2      152     235.382467344108    -39530.1748276919    -39737.1558028466     206.980975154668     53503.5632846448     2455.93485086791     1.75348366276207    -37613.8221496203     43419.1468838323     61556.4096887757     55535.1332813265          12.21999073         14.620910645          13.74584817 
                15.3      153     234.147756085208    -39530.1608229068    -39736.0560683413     205.895245434502     53480.8632994986     2455.93485086791     1.75348366276207    -37614.6211968013     43049.3839304257     61811.3855484955     55581.8204195747          12.21999073         14.620910645          13.74584817 
                15.4      154     232.901434367616    -39530.1467636252    -39734.9460698108      204.79930618561     53466.1839236374     2455.93485086791     1.75348366276207    -37615.1329129918     42701.5721190196     62058.4191590103     55638.5604928824          12.21999073         14.620910645          13.74584817 
                15.5      155     231.668246617374    -39530.1326742942    -39733.8475904402     203.714916145969     53458.6778691876     2455.93485086791     1.75348366276207    -37615.3876701949     42376.1552234547     62295.9441811284     55703.9342029798          12.21999073         14.620910645          13.74584817 
                15.6      156     230.473022617847    -39530.1185762399    -39732.7824853515     202.663909111581     53457.4730901592     2455.93485086791     1.75348366276207    -37615.4167240612      42073.680664779     62521.9584894845     55776.7801162142          12.21999073         14.620910645          13.74584817 
                15.7      157     229.340228649091    -39530.1044919108    -39731.7722911466      201.66779923582     53461.6780300003     2455.93485086791     1.75348366276207    -37615.2520301796     41794.5518603766     62735.1096182169     55855.3726114074          12.21999073         14.620910645          13.74584817 
                15.8      158     228.293519335859    -39530.0904421478    -39730.8378290997     200.747386951928     53470.1635479196     2455.93485086791     1.75348366276207    -37614.9340521548     41538.8698296695     62933.4062337313      55938.214580358          12.21999073         14.620910645          13.74584817 
                15.9      159     227.355287456279    -39530.0764434692    -39729.9988065715     199.922363102243     53481.8617262091     2455.93485086791     1.75348366276207    -37614.5010564241     41306.8648106448     63115.0330792849     56023.6872886976          12.21999073         14.620910645          13.74584817 
                  16      160     226.546233667393    -39530.0625095238    -39729.2734401049     199.210930581097     53495.7591613486     2455.93485086791     1.75348366276207    -37613.9893540047     41098.0763835497     63278.7362450033     56110.4648554929          12.21999073         14.620910645          13.74584817 
                16.1      161     225.884972262849    -39530.0486548651    -39728.6781125273     198.629457662196     53511.1653283651     2455.93485086791     1.75348366276207    -37613.4236921838     40912.5945582789     63423.5990573234     56197.3023694931          12.21999073         14.620910645          13.74584817 
                16.2      162     225.387670460996    -39530.0348860815    -39728.2270468921     198.192160810586     53527.2353176473     2455.93485086791     1.75348366276207     -37612.834339923     40750.4132760942     63548.4257049626     56282.8669718851          12.21999073         14.620910645          13.74584817 
                16.3      163     225.067721978423    -39530.0212097351    -39727.9320273782     197.910817643147     53543.1459808573     2455.93485086791     1.75348366276207    -37612.2507867277      40611.116384142     63652.3350235792     56365.9865348508          12.21999073         14.620910645          13.74584817 
                16.4      164      224.93547896756    -39530.0076250321     -39727.802156243      197.79453121088     53558.4131682721     2455.93485086791     1.75348366276207    -37611.6903727354     40494.6589488497     63734.6413784512     56445.9391775155          12.21999073         14.620910645          13.74584817 
                16.5      165     224.998052881494    -39529.9941271835    -39727.8436820751     197.849554891579     53572.5545730829     2455.93485086791     1.75348366276207    -37611.1703680802     40400.7382458496     63795.3277384903     56521.5977349089          12.21999073         14.620910645          13.74584817 
                16.6      166     225.259190906182     -39529.980708223    -39728.0598919549     198.079183731865     53585.1559856271     2455.93485086791     1.75348366276207    -37610.7056006637     40329.2241688876      63834.083746861     56592.1600411328          12.21999073         14.620910645          13.74584817 
                16.7      167     225.719220243302    -39529.9673571149    -39728.4510625678     198.483705452923     53596.1248738081     2455.93485086791     1.75348366276207    -37610.2993736993     40280.3171870689     63850.8002776222     56657.2571567332          12.21999073         14.620910645          13.74584817 
                16.8      168      226.37505251242    -39529.9540546709    -39729.0144589924     199.060404321498     53605.1522548226     2455.93485086791     1.75348366276207    -37609.9627349255     40253.5409435017     63845.6278700142      56716.287950952          12.21999073         14.620910645          13.74584817 
                16.9      169     227.220267034642    -39529.9407847075    -39729.7444190919     199.803634384461     53612.4049795739     2455.93485086791     1.75348366276207    -37609.6896920115     40248.8904081841     63819.0559323375     56769.2685982003          12.21999073         14.620910645          13.74584817 
                  17      170     228.245255152545    -39529.9275238898    -39730.6324702648     200.704946374939     53617.9772759791     2455.93485086791     1.75348366276207    -37609.4768466338     40266.4058251725     63771.5971984254     56815.9288043393          12.21999073         14.620910645          13.74584817 
                17.1      171     229.437431565228    -39529.9142463121    -39731.6675198596     201.753273547466     53621.9613969231     2455.93485086791     1.75348366276207    -37609.3208686382     40305.7761070345     63704.0694571352     56856.0386265997          12.21999073         14.620910645          13.74584817 
                17.2      172     230.781512997063    -39529.9009247539    -39732.8361014761     202.935176722276     53624.5846757246     2455.93485086791     1.75348366276207    -37609.2135883406     40366.8968082459     63617.3806736116     56889.4765453162          12.21999073         14.620910645          13.74584817 
                17.3      173     232.259839853169    -39529.8875303985    -39734.1226575279     204.235127129487     53626.1448257906     2455.93485086791     1.75348366276207    -37609.1443136368     40449.3517107061     63512.5238887024     56916.5588779635          12.21999073         14.620910645          13.74584817 
                17.4      174     233.852744448997    -39529.8740340514    -39735.5098642592     205.635830207727     53627.0231265964     2455.93485086791     1.75348366276207    -37609.0993589345     40553.0744243052     63390.6923651132     56937.3025903708          12.21999073         14.620910645          13.74584817 
                17.5      175     235.538958037342    -39529.8604058259    -39736.9789893447      207.11858351885     53627.6763535172     2455.93485086791     1.75348366276207    -37609.0623338905     40677.7708578461     63253.1449497569     56952.1132529487          12.21999073         14.620910645          13.74584817 
                17.6      176     237.296019793725    -39529.8466201815    -39738.5102565662      208.66363638471     53628.4856948568     2455.93485086791     1.75348366276207    -37609.0195598321      40823.156443472     63101.0537725859     56961.2468685126          12.21999073         14.620910645          13.74584817 
                17.7      177     239.100717230751    -39529.8326470492    -39740.0832242098     210.250577160671     53630.1964364361     2455.93485086791     1.75348366276207    -37608.9443125713     40989.0370098186     62936.1867314353     56965.3655680545          12.21999073         14.620910645          13.74584817 
                17.8      178     240.929538805778    -39529.8184627319     -39741.677193963     211.858731231167      53633.444521293     2455.93485086791     1.75348366276207    -37608.8137906546      41175.062035009     62760.1427336996     56965.1287951703          12.21999073         14.620910645          13.74584817 
                17.9      179     242.759108827708    -39529.8040441149    -39743.2715875551     213.467543440189     53638.6916707454     2455.93485086791     1.75348366276207    -37608.6114333605     41380.7243195031      62574.617274804     56960.7334179292          12.21999073         14.620910645          13.74584817 
                  18      180     244.566613288391    -39529.7893698119    -39744.8463223533     215.056952541427     53646.0070512282     2455.93485086791     1.75348366276207    -37608.3347419484     41605.3027895328     62380.5416756932     56952.1766884587          12.21999073         14.620910645          13.74584817 
                18.1      181     246.330205864992    -39529.7744219024    -39746.3821701143     216.607748211977     53655.7942844168     2455.93485086791     1.75348366276207    -37607.9692418628     41848.3670885873     62179.2189449439     56939.7968197194          12.21999073         14.620910645          13.74584817 
                18.2      182     248.029394430404     -39529.759187002     -39747.861097928     218.101910926001     53668.3511793014     2455.93485086791     1.75348366276207    -37607.5042530085     42109.2329054992     61971.9951876028     56923.8254448021          12.21999073         14.620910645          13.74584817 
                18.3      183     249.645378456676    -39529.7436559179    -39749.2665645646     219.522908646716     53684.2015992737     2455.93485086791     1.75348366276207     -37606.921002825     42387.3453805564     61760.3021862133     56904.9572310514          12.21999073         14.620910645          13.74584817 
                18.4      184     251.161369837089    -39529.7278189426    -39750.5837978804     220.855978937737     53703.2615007099     2455.93485086791     1.75348366276207    -37606.2224918198     42681.5984081747     61544.9472386459     56883.2388553092          12.21999073         14.620910645          13.74584817 
                18.5      185     252.562874634459    -39529.7116717052    -39751.8000484206     222.088376715349     53725.6096150524     2455.93485086791     1.75348366276207    -37605.4058956751     42991.0722277976     61326.9353229819     56858.8212943778          12.21999073         14.620910645          13.74584817 
                18.6      186     253.837904705202    -39529.6952146734    -39752.9047750112     223.209560337781     53751.0880506789     2455.93485086791     1.75348366276207    -37604.4768701086     43314.1936566245     61107.2435698427     56831.8269255695          12.21999073         14.620910645          13.74584817 
                18.7      187     254.977151785334    -39529.6784528181    -39753.8897975039     224.211344685819     53779.7204172237     2455.93485086791     1.75348366276207    -37603.4345744582     43649.6964682022     60887.0038074898     56802.4609759792          12.21999073         14.620910645          13.74584817 
                18.8      188     255.974100703536    -39529.6613909676    -39754.7493916831     225.088000715459     53811.1422273995     2455.93485086791     1.75348366276207    -37602.2920684992     43996.2238933418     60666.6113974135     56770.5913914433          12.21999073         14.620910645          13.74584817 
                18.9      189     256.825076662649    -39529.6440446006    -39755.4803416349     225.836297034374     53845.4370979264     2455.93485086791     1.75348366276207     -37601.046372786      44352.728791825     60447.2952621834     56736.2872397709          12.21999073         14.620910645          13.74584817 
                  19      190     257.529235734359    -39529.6264253249    -39756.0819168684      226.45549154351     53882.1317709092     2455.93485086791     1.75348366276207    -37599.7144497421      44717.431615824      60229.520215001     56699.4434819028          12.21999073         14.620910645          13.74584817 
                19.1      191     258.088517408452     -39529.608548689    -39756.5558384008     226.947289711811     53920.4910524488     2455.93485086791     1.75348366276207    -37598.3226475694     45088.4536785192     60013.5593409185     56659.4601379086          12.21999073         14.620910645          13.74584817 
                19.2      192     258.507518013687    -39529.5904381412    -39756.9061714115     227.315733270248     53959.4957516094     2455.93485086791     1.75348366276207    -37596.9074943742     45463.2349474049     59799.3550735967     56615.8972338267          12.21999073         14.620910645          13.74584817 
                19.3      193     258.793303701932    -39529.5721140164    -39757.1391497779     227.567035761489     53998.4481903218     2455.93485086791     1.75348366276207    -37595.4939994297     45839.7968369821      59587.421656451     56568.1260775324          12.21999073         14.620910645          13.74584817 
                19.4      194     258.955198520283    -39529.5536018726    -39757.2629980561     227.709396183456     54036.5876363139     2455.93485086791     1.75348366276207    -37594.1094356628     46215.9523159348     59378.0714052232     56515.7391877837          12.21999073         14.620910645          13.74584817 
                19.5      195     259.004507688331     -39529.534925265    -39757.2876809213     227.752755656241     54073.0254644299     2455.93485086791     1.75348366276207    -37592.7856547742     46589.4390869175     59171.2393364338     56458.3979699382          12.21999073         14.620910645          13.74584817 
                19.6      196     258.954200589534     -39529.516113339    -39757.2246320031     227.708518664065     54106.5665719456     2455.93485086791     1.75348366276207    -37591.5654912509     46957.8941037636     58966.7972434782      56395.008368595          12.21999073         14.620910645          13.74584817 
                19.7      197     258.818567781116    -39529.4971915384    -39757.0864429891     227.589251450724     54136.5824995239     2455.93485086791     1.75348366276207    -37590.4714802475     47319.0969298576     58765.3596372152     56325.2909314987          12.21999073         14.620910645          13.74584817 
                19.8      198      258.61285520977    -39529.4781872906    -39756.8865476618     227.408360371201     54162.1429616018     2455.93485086791     1.75348366276207    -37589.5369694997     47670.6425489847      58566.975298844     56248.8110369766          12.21999073         14.620910645          13.74584817 
                19.9      199     258.352889880929    -39529.4591227488    -39756.6388854769     227.179762728066     54182.1268319996     2455.93485086791     1.75348366276207    -37588.8021368632     48009.8843095518     58371.4172884022     56165.0788980448          12.21999073         14.620910645          13.74584817 
                  20      200     258.054717592475    -39529.4400226556    -39756.3575908722      226.91756821662     54195.8681656037     2455.93485086791     1.75348366276207    -37588.2908594301     48334.6693914742     58179.2389509848     56073.6961543521          12.21999073         14.620910645          13.74584817 
                20.1      201     257.734242442848    -39529.4209073196    -39756.0566692499      226.63576193032     54202.5721103585     2455.93485086791     1.75348366276207    -37588.0316269562     48642.9842406057     57990.3519150068     55974.3801754631          12.21999073         14.620910645          13.74584817 
                20.2      202     257.406872304298    -39529.4017943947    -39755.7496870063     226.347892611597     54201.0883304727     2455.93485086791     1.75348366276207    -37588.0656590067     48932.4411015146     57804.6709634808     55866.1529264228          12.21999073         14.620910645          13.74584817 
                20.3      203     257.087204766835    -39529.3826997295    -39755.4494962196      226.06679649014     54190.5230384163     2455.93485086791     1.75348366276207    -37588.4249844781     49200.5817026908      57622.604985075     55748.3824274832          12.21999073         14.620910645          13.74584817 
                20.4      204     256.788761605838    -39529.3636314339    -39755.1679952238     225.804363789912     54170.3743873341     2455.93485086791     1.75348366276207     -37589.127586275      49445.646665932     57444.6760704326     55620.8004256378          12.21999073         14.620910645          13.74584817 
                20.5      205      256.52377462975    -39529.3445972418    -39754.9159476584     225.571350416686     54140.2194504539     2455.93485086791     1.75348366276207    -37590.1886202222     49665.9490079892      57271.237896576     55483.4714467964          12.21999073         14.620910645          13.74584817 
                20.6      206     256.303009432718    -39529.3256041102    -39754.7028270871     225.377222976875     54099.4250809854     2455.93485086791     1.75348366276207    -37591.6307708797     49859.3414871235     57102.7031928186     55336.2305630143          12.21999073         14.620910645          13.74584817 
                20.7      207      256.13561108235    -39529.3066522225    -39754.5366753073     225.230023084763     54047.5901514606     2455.93485086791     1.75348366276207    -37593.4684057296      50024.491977115     56939.5151263531     55178.7633509138          12.21999073         14.620910645          13.74584817 
                20.8      208     256.028995232984    -39529.2877381614    -39754.4240097756     225.136271614155     53984.3522047237     2455.93485086791     1.75348366276207    -37595.7145035882     50159.7927602934       56782.13096457     55011.1328893079          12.21999073         14.620910645          13.74584817 
                20.9      209     255.988795813328    -39529.2688617864    -39754.3697844845     225.100922698091     53909.4188486686     2455.93485086791     1.75348366276207     -37598.379537008     50263.9451338352     56631.0767931292     54833.2346190416          12.21999073         14.620910645          13.74584817 
                  21      210     256.018835839208    -39529.2500174261    -39754.3773554895     225.127338063349     53822.8282334461     2455.93485086791     1.75348366276207    -37601.4621338824     50336.1688775242     56486.9412365551     54645.3745862591          12.21999073         14.620910645          13.74584817 
                21.1      211     256.121129652869    -39529.2311956056    -39754.4484846051     225.217288999554     53724.8796423364     2455.93485086791     1.75348366276207    -37604.9515652204      50375.863534036     56350.2636148029     54448.5117781705          12.21999073         14.620910645          13.74584817 
                21.2      212     256.295923407134     -39529.212387714    -39754.5833796724     225.370991958475     53615.5694579236     2455.93485086791     1.75348366276207    -37608.8479519771     50382.4638289195     56221.3707687487     54242.8737761026          12.21999073         14.620910645          13.74584817 
                21.3      213     256.541751375462    -39529.1935854086    -39754.7807434782      225.58715806965     53495.1736313509     2455.93485086791     1.75348366276207    -37613.1414019876     50355.7866087929     56101.1894439633     54028.5448412965          12.21999073         14.620910645          13.74584817 
                21.4      214      256.85548967348    -39529.1747808331    -39755.0378212129     225.863040379832     53364.1460072772     2455.93485086791     1.75348366276207    -37617.8156519095     50295.9568043258     55990.2236839151     53806.2575335908          12.21999073         14.620910645          13.74584817 
                21.5      215     257.232465991324    -39529.1559582723    -39755.3504886172       226.1945303449     53222.5092188306     2455.93485086791     1.75348366276207    -37622.8698753701     50202.3634251468     55888.7838706631     53576.3803606819          12.21999073         14.620910645          13.74584817 
                21.6      216     257.666596754193    -39529.1371087156    -39755.7133871561     226.576278440488     53070.9657017779     2455.93485086791     1.75348366276207    -37628.2789040129     50075.1158550617     55798.0108371148     53339.7704131572          12.21999073         14.620910645          13.74584817 
                21.7      217     258.150495134736    -39529.1182207667    -39756.1200099082     227.001789141479     52909.9806567239     2455.93485086791     1.75348366276207    -37634.0260642163     49914.5866315506     55718.3622120255     53096.9931265957          12.21999073         14.620910645          13.74584817 
                21.8      218     258.675596142249    -39529.0992871009    -39756.5628180187     227.463530917814     52740.2414859301     2455.93485086791     1.75348366276207    -37640.0867277689     49721.3495993331     55650.1907652817     52849.1840931755          12.21999073         14.620910645          13.74584817 
                21.9      219     259.232299867897    -39529.0802938044        -39757.033356     227.953062195598     52562.6832391534     2455.93485086791     1.75348366276207    -37646.4273898082     49496.5771776159       55593.80759206     52597.6649477845          12.21999073         14.620910645          13.74584817 
                  22      220     259.810145247756     -39529.061229855    -39757.5224140087     228.461184153709     52378.1196290826     2455.93485086791     1.75348366276207    -37653.0188943279     49241.2232517203      55549.574128159     52343.5615073686          12.21999073         14.620910645          13.74584817 
                22.1      221     260.397978112202    -39529.0420859232    -39758.0201744193     228.978088496177     52187.4871532148     2455.93485086791     1.75348366276207    -37659.8276891954      48956.603517644     55518.0802382632     52087.7777037371          12.21999073         14.620910645          13.74584817 
                22.2      222     260.984137867539     -39529.022851816    -39758.5163734246     229.493521608613       51991.50600184     2455.93485086791     1.75348366276207     -37666.827968953     48644.0728735922     55499.3992865723     51831.0458453555          12.21999073         14.620910645          13.74584817 
                22.3      223     261.556650308346    -39529.0035187284    -39759.0004728341     229.996954105618     51790.8750169284     2455.93485086791     1.75348366276207    -37673.9946941695     48304.8264559099     55493.5024393681     51574.2961555071          12.21999073         14.620910645          13.74584817 
                22.4      224     262.103407703587    -39528.9840766834    -39759.4618158709      230.47773918752      51586.933634082     2455.93485086791     1.75348366276207    -37681.2798799137     47940.7457563437      55501.098664725     51318.9564811774          12.21999073         14.620910645          13.74584817 
                22.5      225     262.612374068573    -39528.9645189635    -39759.8898121075     230.925293143998     51380.6446178025     2455.93485086791     1.75348366276207    -37688.6490358519     47553.6220694434     55521.9626298356     51066.3491541286          12.21999073         14.620910645          13.74584817 
                22.6      226     263.071783313162    -39528.9448395575     -39760.274109151     231.329269593533     51172.6764636014     2455.93485086791     1.75348366276207    -37696.0782122752     47145.1177049947     55555.6810638196       50817.23062199          12.21999073         14.620910645          13.74584817 
                22.7      227     263.470330577201    -39528.9250333152    -39760.6047610473     231.679727732096     50963.9740973009     2455.93485086791     1.75348366276207    -37703.5335593502     46717.3753916784     55602.0059315601     50572.5409686641          12.21999073         14.620910645          13.74584817 
                22.8      228     263.797354288219    -39528.9050943544     -39760.872386778     231.967292423591     50755.7173402045     2455.93485086791     1.75348366276207    -37710.9728131924     46272.4536598596     55661.1047349606     50333.5936257934          12.21999073         14.620910645          13.74584817 
                22.9      229     264.043036753553    -39528.8850170318    -39761.0683476201     232.183330588315     50548.7996349106     2455.93485086791     1.75348366276207    -37718.3639674652     45812.3398743386     55732.5694317306     50101.4895986625          12.21999073         14.620910645          13.74584817 
                  23      230     264.198606395791    -39528.8647983274    -39761.1849273639     232.320129036468     50344.1545244667     2455.93485086791     1.75348366276207    -37725.6735821659     45338.9794671861     55816.2438492046     49877.2402570096          12.21999073         14.620910645          13.74584817 
                23.1      231     264.256503585024     -39528.844442486     -39761.215482777      232.37104029091     50142.2038035033     2455.93485086791     1.75348366276207    -37732.8865539984     44854.2508752114     55911.1736266363     49661.1869086621          12.21999073         14.620910645          13.74584817 
                23.2      232     264.210522206088      -39528.82394735    -39761.1545544228     232.330607072759     49943.7419299249     2455.93485086791     1.75348366276207    -37739.9744254753     44360.1306163117     56016.7593048341     49454.3358686288          12.21999073         14.620910645          13.74584817 
                23.3      233     264.055947798147    -39528.8033131177    -39760.9979968906     232.194683772903     49749.5247762932     2455.93485086791     1.75348366276207    -37746.9101234878     43858.7629643632     56132.3159047045     49257.4954598118          12.21999073         14.620910645          13.74584817 
                23.4      234     263.789676279809    -39528.7825467467    -39760.7430875984     231.960540851625     49560.2885620365     2455.93485086791     1.75348366276207    -37753.6672856083     43352.3199514234     56257.2111473477     49071.3345873384          12.21999073         14.620910645          13.74584817 
                23.5      235     263.410298979435     -39528.761649885    -39760.3885894941     231.626939609065     49376.7023771121     2455.93485086791     1.75348366276207    -37760.2219484951     42843.0603182343     56390.3198974464     48896.7269156557          12.21999073         14.620910645          13.74584817 
                23.6      236      262.91816679554    -39528.7406289188    -39759.9348175227     231.194188603958     49199.0405015474     2455.93485086791     1.75348366276207     -37766.564294567     42332.9977672895     56530.8126538958     48733.3110834568          12.21999073         14.620910645          13.74584817 
                23.7      237     262.315438022474    -39528.7194908467    -39759.3836765554     230.664185708625     49027.9383957997     2455.93485086791     1.75348366276207    -37772.6715703509     41824.4562316015     56677.6483428967     48581.7106129011          12.21999073         14.620910645          13.74584817 
                23.8      238      261.60609641281    -39528.6982496931     -39758.738683685     230.040433991929     48863.5894414539     2455.93485086791     1.75348366276207    -37778.5368634664      41318.870207945     56829.6455297035     48442.2525867133          12.21999073         14.620910645          13.74584817 
                23.9      239     260.795900694125    -39528.6769134376     -39758.004910765     229.327997327416     48706.3129970961     2455.93485086791     1.75348366276207    -37784.1487433341     40818.6660464233     56985.4990206703     48314.7739241949          12.21999073         14.620910645          13.74584817 
[...]
                44.4      444     325.118605426099    -39522.7861406821    -39808.6755985985     285.889457916349     54702.9117000181     2455.93485086791     1.75348366276207    -37563.4760518019      53356.962180244     55825.6848755763      54926.088044234          12.21999073         14.620910645          13.74584817 
                44.5      445     324.252804540912     -39522.747555883    -39807.8756813453      285.12812546229     54671.4852933917     2455.93485086791     1.75348366276207    -37564.5630757436     53253.5026361284     55905.1828637947     54855.7703802521          12.21999073         14.620910645          13.74584817 
                44.6      446     323.379283599096    -39522.7255292379    -39807.0855336995     284.360004461626      54665.588675851     2455.93485086791     1.75348366276207     -37564.752249963      53168.225750863     56015.3614698563     54813.1788068339          12.21999073         14.620910645          13.74584817 
                44.7      447     322.282308120918    -39522.7219369602    -39806.1173281405     283.395391180288     54929.7202924611     2455.93485086791     1.75348366276207    -37555.2881787979     53260.2604396277     56456.6345145753     55072.2659231802          12.21999073         14.620910645          13.74584817 
                44.8      448     320.605608359052    -39522.6976100569    -39804.6186138044     281.921003747493     55454.8541317539     2455.93485086791     1.75348366276207    -37536.4549805318     53528.1548914437     57196.8102300203     55639.5972737977          12.21999073         14.620910645          13.74584817 
                44.9      449     318.315889097794    -39522.6329290494    -39802.5404934322      279.90756438273     56093.2633243535     2455.93485086791     1.75348366276207    -37513.5242119063     53878.4900188189     58037.4658729443     56363.8340812974          12.21999073         14.620910645          13.74584817 
                  45      450     315.992294290231    -39522.5387903282    -39800.4031272583     277.864336930149     56614.4826966781     2455.93485086791     1.75348366276207    -37494.7614074234     54157.7939902608     58697.5170660663     56988.1370337072          12.21999073         14.620910645          13.74584817 
                45.1      451     314.601279349243    -39522.4650009372    -39799.1061642291     276.641163291989     56784.2354960904     2455.93485086791     1.75348366276207    -37488.6075326737     54203.5446988935     58915.1732988282     57233.9884905493          12.21999073         14.620910645          13.74584817 
                45.2      452     314.742695293805     -39522.450300527    -39799.2158163693     276.765515842279     56482.3368100391     2455.93485086791     1.75348366276207    -37499.4060252549     53923.6970981857     58583.1993340361     56940.1139978956          12.21999073         14.620910645          13.74584817 
                45.3      453     316.093525521105    -39522.4729673315    -39800.4263208274     277.953353495906     55772.3936497185     2455.93485086791     1.75348366276207    -37524.8569325921     53350.5500943283     57810.6674815612     56155.9633732659          12.21999073         14.620910645          13.74584817 
                45.4      454     317.713782667629    -39522.4791115908    -39801.8572203286      279.37810873776      54863.927741729     2455.93485086791     1.75348366276207    -37557.4018643421     52621.0957492405     56858.0565020242     55112.6309739224          12.21999073         14.620910645          13.74584817 
                45.5      455     318.839774497817    -39522.4433787333    -39802.8116159613     280.368237228034     54000.5331533224     2455.93485086791     1.75348366276207    -37588.2905864208     51903.1215516665     56000.4683969279     54098.0095113729          12.21999073         14.620910645          13.74584817 
                45.6      456     319.315694361255    -39522.3791019217    -39803.1658340297     280.786732108053     53360.3765783452     2455.93485086791     1.75348366276207    -37611.1549837297     51324.8181159519     55420.5737698651     53335.7378492187          12.21999073         14.620910645          13.74584817 
                45.7      457     319.444767279605    -39522.3132358542    -39803.2134668086     280.900230954453     53017.4968415828     2455.93485086791     1.75348366276207    -37623.3701408589     50944.5545826242     55177.4769904005     52930.4589517237          12.21999073         14.620910645          13.74584817 
                45.8      458     319.505580064358    -39522.2795233937    -39803.2332293994      280.95370600564     52756.6179196387     2455.93485086791     1.75348366276207    -37632.6804045755     50611.9011032538     55029.1630526485     52628.7896030139          12.21999073         14.620910645          13.74584817 
                45.9      459     319.543191450143    -39522.2458518545    -39803.2326310172     280.986779162679     52481.5996445432     2455.93485086791     1.75348366276207     -37642.497142535     50258.2380269657     54872.3235941267     52314.2373125371          12.21999073         14.620910645          13.74584817 
                  46      460     319.529631390871      -39522.21209321    -39803.1869484842     280.974855274197     52194.6225197291     2455.93485086791     1.75348366276207    -37652.7421269858     49884.8798031672     54709.4246442913     51989.5631117289          12.21999073         14.620910645          13.74584817 
                46.1      461     319.439861847053    -39522.1780954605     -39803.074012877      280.89591741647     51897.9416239222     2455.93485086791     1.75348366276207    -37663.3344351178      49494.012010442      54542.310562315     51657.5022990095          12.21999073         14.620910645          13.74584817 
                46.2      462      319.25414911774     -39522.143741603    -39802.8763545804     280.732612977336     51593.9385098608     2455.93485086791     1.75348366276207    -37674.1886491614     49088.1969240881     54372.8456322768     51320.7729732176          12.21999073         14.620910645          13.74584817 
                46.3      463     318.960282081967    -39522.1089158931    -39802.5831201354     280.474204242325     51284.5575381917     2455.93485086791     1.75348366276207    -37685.2350116416     48669.9633747745     54202.2094025577     50981.4998372429          12.21999073         14.620910645          13.74584817 
                46.4      464     318.555483572622    -39522.0735411212    -39802.1917902614     280.118249140185     50971.6436094994     2455.93485086791     1.75348366276207    -37696.4073660086     48242.6276793823     54030.7071824026     50641.5959667134          12.21999073         14.620910645          13.74584817 
                46.5      465     318.047796491146    -39522.0375867964    -39801.7094069039     279.671820107543     50656.8225443493     2455.93485086791     1.75348366276207    -37707.6474492834      47809.296437171     53857.7752088767     50303.3959870003          12.21999073         14.620910645          13.74584817 
                46.6      466     317.456682943779    -39522.0010719428    -39801.1531028756     279.152030932752     50341.0859384517     2455.93485086791     1.75348366276207    -37718.9197642186     47372.9497245452     53682.3318687699     49967.9762220399          12.21999073         14.620910645          13.74584817 
                46.7      467     316.812729014432    -39521.9640751555    -39800.5498523067     278.585777151173     50024.8565756204     2455.93485086791     1.75348366276207    -37730.2092464383     46936.3644538012     53501.9575904333     49636.2476826268          12.21999073         14.620910645          13.74584817 
                46.8      468     316.156320091483    -39521.9267273972    -39799.9352986056     278.008571208414     49707.9560781023     2455.93485086791     1.75348366276207    -37741.5224159132     46502.0198442029     53313.4438719958     49308.4045181082          12.21999073         14.620910645          13.74584817 
                46.9      469      315.53536094025    -39521.8892039358     -39799.351741567     277.462537631217     49390.3230393691     2455.93485086791     1.75348366276207    -37752.8616473267     46072.0159856755     53113.9512094867      48985.001922945          12.21999073         14.620910645          13.74584817 
                  47      470     315.002202169931    -39521.8517074222    -39798.8454177723     276.993710350077     49071.7700445311     2455.93485086791     1.75348366276207    -37764.2338560231      45648.445113078     52900.5495406979     48666.3154798175          12.21999073         14.620910645          13.74584817 
                47.1      471     314.609974951903    -39521.8144555119    -39798.4632651861      276.64880967423     48752.3186481581     2455.93485086791     1.75348366276207    -37775.6384876318     45233.4029469107     52670.7621880075     48352.7908095562          12.21999073         14.620910645          13.74584817 
                47.2      472      314.40864818599    -39521.7776478093    -39798.2494230136     276.471775204315     48431.4274861742     2455.93485086791     1.75348366276207    -37787.0951319516     44828.5661551134     52421.1464711874     48044.5698322219          12.21999073         14.620910645          13.74584817 
                47.3      473      314.44118835199    -39521.7414583203    -39798.2418473605     276.500389040198     48108.9152206357     2455.93485086791     1.75348366276207    -37798.6104580222     44435.4229480253     52149.1845744497     47742.1381394321          12.21999073         14.620910645          13.74584817 
                47.4      474     314.740208684284     -39521.706009602    -39798.4693388717     276.763329269637     47785.6021807373     2455.93485086791     1.75348366276207    -37810.1552064315     44055.4066416669       51854.59073475     47446.8091657951          12.21999073         14.620910645          13.74584817 
                47.5      475     315.325407278367    -39521.6713574416    -39798.9492746371     277.277917195531     47461.8410792809     2455.93485086791     1.75348366276207    -37821.7167997497     43689.0064097748     51536.8927623511     47159.6240657168          12.21999073         14.620910645          13.74584817 
                47.6      476     316.202078131837    -39521.6374920209    -39799.6863000571     278.048808036248     47138.2710511374     2455.93485086791     1.75348366276207    -37833.2723360792     43336.8659588233     51196.1007164546     46881.8464781344          12.21999073         14.620910645          13.74584817 
                47.7      477     317.360858083971    -39521.6043260438    -39800.6720944435      279.06776839973     46816.3355424819     2455.93485086791     1.75348366276207    -37844.7700277928     43000.2590243891     50833.4045708293     46615.3430322275          12.21999073         14.620910645          13.74584817 
                47.8      478     318.778746582984    -39521.5716999073    -39801.8862729119     280.314573004584     46497.5984652082     2455.93485086791     1.75348366276207    -37856.1537002005     42680.0557955396     50450.7682676596     46361.9713324255          12.21999073         14.620910645          13.74584817 
                47.9      479     320.421309352164    -39521.5394179048    -39803.2983603544     281.758942449571     46184.1289969579     2455.93485086791     1.75348366276207    -37867.3490452586     42377.2609502828     50051.2310100116     46123.8950305792          12.21999073         14.620910645          13.74584817 
                  48      480     322.245630353504    -39521.5072737846    -39804.8704127748     283.363138990261     45877.9548860598     2455.93485086791     1.75348366276207    -37878.2832282642     42092.6831110273      49637.941161986     45903.2403851663          12.21999073         14.620910645          13.74584817 
                48.1      481     324.203684320955     -39521.475051344     -39806.559983483     285.084932138924     45580.6954912823     2455.93485086791     1.75348366276207    -37888.8980319709     41826.2382960717     49214.1728782765     45701.6752994988          12.21999073         14.620910645          13.74584817 
                48.2      482      326.24584763199    -39521.4425633875    -39808.3232492982     286.880685910701     45294.0885842107     2455.93485086791     1.75348366276207    -37899.1310269131      41578.069195196     48783.4413174648     45520.7552399713          12.21999073         14.620910645          13.74584817 
                48.3      483     328.324084567201    -39521.4096712214    -39810.1178318472     288.708160625814     45019.7594151268     2455.93485086791     1.75348366276207    -37908.9238623355     41347.4184567183     48349.9782813556     45361.8815073065          12.21999073         14.620910645          13.74584817 
                48.4      484     330.394427836521    -39521.3763087223    -39811.9050028552     290.528694132935     44759.6896722374     2455.93485086791     1.75348366276207    -37918.2054934121     41133.9863554842     47918.6308645937     45226.4517966344          12.21999073         14.620910645          13.74584817 
                48.5      485     332.418476216456     -39521.342468671    -39813.6509874109     292.308518739951      44515.884023594     2455.93485086791     1.75348366276207    -37926.9041111453     40937.9245585486     47493.9642309387     45115.7632812946          12.21999073         14.620910645          13.74584817 
                48.6      486      334.36394586091    -39521.3082038197    -39815.3274498227     294.019246003058     44290.1251165713     2455.93485086791     1.75348366276207    -37934.9559186883     40758.9666453555     47080.7152895074     45030.6934148509          12.21999073         14.620910645          13.74584817 
                48.7      487     336.204353147394    -39521.2736137403    -39816.9112015814     295.637587841073     44084.8187649956     2455.93485086791     1.75348366276207    -37942.2748458798     40597.5869350603     46684.6889879861     44972.1803719403          12.21999073         14.620910645          13.74584817 
                48.8      488     337.918030017774    -39521.2388059151    -39818.3832966012     297.144490686188     43902.4816962841     2455.93485086791     1.75348366276207    -37948.7708578446     40454.7830737465     46311.7871950238      44940.874820082          12.21999073         14.620910645          13.74584817 
                48.9      489     339.486935726367     -39521.203880041    -39819.7279706488     298.524090607773     43746.1605837451     2455.93485086791     1.75348366276207    -37954.3349306963     40332.1867410028     45968.4560865289     44937.8389237035          12.21999073         14.620910645          13.74584817 
                  49      490     340.853571482673    -39521.1898188053    -39820.9156454842     299.725826678914     43679.2669364903     2455.93485086791     1.75348366276207    -37956.7168186683     40323.2603381942     45684.3354543778      45030.205016899          12.21999073         14.620910645          13.74584817 
                49.1      491     341.801408850283    -39521.1741848459    -39821.7334818544     300.559297008499     43895.9579676231     2455.93485086791     1.75348366276207    -37948.9398990611     40743.6646965518     45527.1582512811     45417.0509550363          12.21999073         14.620910645          13.74584817 
                49.2      492     342.054117362047    -39521.1756595581    -39821.9571730078     300.781513449618     44408.2700366601     2455.93485086791     1.75348366276207    -37930.5917434827     41588.1754262861     45611.4384024851      46025.196281209          12.21999073         14.620910645          13.74584817 
                49.3      493     341.163856962305     -39521.188640927    -39821.1873137184      299.99867279135     45664.4251330276     2455.93485086791     1.75348366276207    -37885.6126526378     43016.0952887997     47086.7325917672      46890.447518516          12.21999073         14.620910645          13.74584817 
                49.4      494     338.864682242542    -39521.1304709454    -39819.1073898189     297.976918873494     47405.6955487094     2455.93485086791     1.75348366276207    -37823.1868940418     44603.5284881157     49823.9634018573      47789.594756155          12.21999073         14.620910645          13.74584817 
                49.5      495     335.889056909662    -39521.0079393622     -39816.368274936     295.360335573796     49103.9808234239     2455.93485086791     1.75348366276207    -37762.2363851328     45733.2015048213     53108.4354723697     48470.3054930808          12.21999073         14.620910645          13.74584817 
                49.6      496     333.916561774077    -39520.8649302593    -39814.4907740026     293.625843743296     50228.1701949231     2455.93485086791     1.75348366276207    -37721.8279585422     45929.3512823781      55976.556787021     48778.6025153703          12.21999073         14.620910645          13.74584817 
                49.7      497     334.803087827909    -39520.7732673301    -39815.1786679758     294.405400645697     50413.9567765392     2455.93485086791     1.75348366276207    -37715.0819236167     45082.1312078823     57471.7261497688     48688.0129719665          12.21999073         14.620910645          13.74584817 
                49.8      498     339.434309542352    -39520.7825717276    -39819.2603860812     298.477814353603     49598.1137425161     2455.93485086791     1.75348366276207    -37744.3125151053     43489.7015729335      57019.053317704     48285.5863369108          12.21999073         14.620910645          13.74584817 
                49.9      499     347.008838619068    -39520.8620649799    -39826.0004578903     305.138392910391     48049.7939548506     2455.93485086791     1.75348366276207    -37799.8486282431     41698.9907296435     54706.1037942138     47744.2873406945          12.21999073         14.620910645          13.74584817 
                  50      500     355.533716199188    -39520.9222802694    -39833.5569302057     312.634649936314     46274.3235473339     2455.93485086791     1.75348366276207    -37863.5013831955     40268.8254965489     51266.8474274909     47287.2977179619          12.21999073         14.620910645          13.74584817 
Loop time of 10.3444 on 36 procs for 500 steps with 296 atoms

Performance: 0.418 ns/day, 57.469 hours/ns, 48.335 timesteps/s
-0.0% CPU use with 36 MPI tasks x no OpenMP threads

MPI task timing breakdown:
Section |  min time  |  avg time  |  max time  |%varavg| %total
---------------------------------------------------------------
Pair    | 2.1291     | 4.8369     | 7.9205     |  71.7 | 46.76
Neigh   | 1.207      | 1.2502     | 1.3202     |   2.3 | 12.09
Comm    | 0.69253    | 3.8016     | 6.4761     |  80.7 | 36.75
Output  | 0.45088    | 0.45108    | 0.45646    |   0.1 |  4.36
Modify  | 0.0032265  | 0.0036161  | 0.0040126  |   0.3 |  0.03
Other   |            | 0.0009203  |            |       |  0.01

Nlocal:        8.22222 ave          13 max           4 min
Histogram: 1 2 4 4 9 9 2 4 0 1
Nghost:        720.222 ave         755 max         695 min
Histogram: 5 4 3 6 3 5 4 1 3 2
Neighs:        0.00000 ave           0 max           0 min
Histogram: 36 0 0 0 0 0 0 0 0 0
FullNghs:      1419.00 ave        2235 max         675 min
Histogram: 1 3 3 4 9 9 2 4 0 1

Total # of neighbors = 51084
Ave neighs/atom = 172.58108
Neighbor list builds = 500
Dangerous builds not checked
Total wall time: 0:00:10
