# Position data file
 
192 atoms
5 atom types
 
    0.000000000    12.228263000 xlo xhi
    0.000000000    12.228263000 ylo yhi
    0.000000000    12.228263000 zlo zhi
    0.000000000     0.000000000     0.000000000 xy xz yz
 
Masses
 
1    26.982000000
2    12.011000000
3     1.008000000
4    14.007000000
5    15.999000000
 
Atoms
 
1 3 0     5.315170000     3.628800000     1.047490000
2 3 0     4.023620000     3.280500000     2.077630000
3 3 0     2.187310000    10.588900000     4.233250000
4 3 0     2.593060000     9.241130000     4.920080000
5 3 0     1.247990000     0.337608000     4.592240000
6 3 0     2.897030000     0.659485000     4.808810000
7 3 0     8.927650000     2.234080000     9.738540000
8 3 0     9.333310000     2.615010000    11.227800000
9 3 0    10.857200000     3.303470000     7.261110000
10 3 0     0.227867000     2.853100000     6.800060000
11 3 0    10.908700000    11.956000000    11.625100000
12 3 0    10.631200000    10.422200000    11.748000000
13 3 0     0.037408400     1.294090000    11.194700000
14 3 0    11.757400000     0.568246000     9.856750000
15 3 0     9.270950000     9.484540000     7.424810000
16 3 0     8.881840000    10.414400000     6.073090000
17 3 0     0.621331000     9.059850000     5.300230000
18 3 0    11.480500000     8.360380000     5.218050000
19 3 0     1.696320000    12.125400000    10.403700000
20 3 0     3.142150000     0.273610000    10.571800000
21 3 0     9.735750000     5.651210000     8.005470000
22 3 0     8.956780000     6.273110000     9.283670000
23 3 0     5.514150000     7.101750000    12.046700000
24 3 0     5.700560000     8.327760000     0.797815000
25 3 0     5.818330000     8.961000000    11.032800000
26 3 0     5.322280000     9.585580000     9.689260000
27 3 0     5.551750000     2.041710000     2.426070000
28 3 0     6.715940000     1.492710000     3.208730000
29 3 0     4.075170000     7.926410000     6.075290000
30 3 0     3.359050000     6.515630000     6.640570000
31 3 0     6.549240000     8.200150000     5.139610000
32 3 0     7.268150000     8.833770000     6.475100000
33 3 0     5.752770000     4.838000000     6.163230000
34 3 0     4.522000000     5.645270000     5.614700000
35 3 0     4.535950000     5.673460000    10.996600000
36 3 0     3.690720000     5.940630000     0.131849000
37 3 0    11.498600000     9.376730000     9.751460000
38 3 0    11.709700000     8.443530000    10.989400000
39 3 0     6.262580000     6.817160000     6.975980000
40 3 0     7.605540000     6.218400000     7.568290000
41 3 0    10.939400000    11.746300000     5.579170000
42 3 0    10.535200000    11.007800000     4.286550000
43 3 0    11.516800000     5.419090000     1.200440000
44 3 0     0.853086000     5.307840000     0.890899000
45 3 0     7.115980000     4.619140000     2.232450000
46 3 0     6.931550000     5.149080000     0.776911000
47 3 0    11.834200000     6.533520000    10.023400000
48 3 0     0.003007330     6.185140000    11.479600000
49 3 0    10.756900000     2.495350000     0.803296000
50 3 0    12.076100000     3.307490000     0.637783000
51 3 0     4.325200000     2.666790000     9.070610000
52 3 0     5.238200000     2.149280000    10.203400000
53 3 0     7.836180000    12.132300000     9.456360000
54 3 0     8.192980000    11.445600000     8.057850000
55 3 0     9.994200000     8.934780000     3.917450000
56 3 0    10.233500000     7.368360000     3.789870000
57 3 0     5.220180000    10.343500000     1.662220000
58 3 0     4.109690000     9.127070000     2.221490000
59 3 0     3.140130000     9.067520000     9.312950000
60 3 0     3.366420000    10.566900000     9.520620000
61 3 0     2.653440000     2.060620000     7.703470000
62 3 0     2.061140000     2.985680000     8.802930000
63 3 0     5.841320000     4.207280000     9.734200000
64 3 0     6.109430000     5.526430000     8.921280000
65 3 0     8.739200000     3.576810000     7.321260000
66 3 0     9.387530000     4.451370000     6.089650000
67 3 0     0.847752000    10.050400000    12.013400000
68 3 0     1.421270000    11.187000000     0.693943000
69 3 0     7.938400000     1.444940000     8.008320000
70 3 0     6.835790000     2.452630000     8.141990000
71 3 0     0.392471000     7.141720000     6.502870000
72 3 0     1.252410000     5.901010000     7.123190000
73 3 0     6.191750000     8.366280000     3.034560000
74 3 0     7.690800000     8.674720000     3.374750000
75 3 0     2.252070000     4.011610000     3.551130000
76 3 0     3.654110000     4.472710000     3.996130000
77 3 0    11.045000000     8.735090000     7.538140000
78 3 0    10.049300000     8.136600000     8.547330000
79 3 0     2.212570000     8.836560000     2.941030000
80 3 0     2.113670000     9.098410000     1.378180000
81 3 0     6.988240000    10.940800000    10.707300000
82 3 0     8.329260000    11.321100000    11.541500000
83 3 0     8.724530000     6.457300000    11.981200000
84 3 0     7.669680000     7.384960000     0.434898000
85 3 0     0.037781300     3.592820000     4.463570000
86 3 0     0.520165000     4.860010000     5.397870000
87 3 0     9.971260000     5.663370000     2.953660000
88 3 0     9.810780000     6.575960000     1.707760000
89 3 0     4.631990000    10.250900000     6.113950000
90 3 0     3.754420000     9.913490000     7.306310000
91 3 0     0.632961000     0.211433000     6.572020000
92 3 0    12.020600000     1.280460000     5.876410000
93 3 0     3.241820000     7.000290000    10.553900000
94 3 0     1.709170000     7.242270000    10.346400000
95 3 0     2.952720000     0.203231000     6.804230000
96 3 0     2.327380000     0.058133800     8.209690000
97 3 0     4.831100000     1.594060000     4.494190000
98 3 0     4.834490000     2.857160000     5.385670000
99 3 0     4.707400000     0.568655000    12.094500000
100 3 0     4.411020000     2.045370000    12.148700000
101 3 0    12.049100000     2.988420000     8.895310000
102 3 0     0.119929000     3.653010000    10.392500000
103 3 0     0.084506400     0.870364000     1.264890000
104 3 0     1.265380000     0.336041000     2.261830000
105 3 0     9.584640000     1.772970000     3.619860000
106 3 0     8.856840000     0.514699000     4.140210000
107 3 0     2.769710000     5.326480000     2.131120000
108 3 0     2.563180000     6.777970000     1.642910000
109 3 0     9.918110000     3.853350000     4.107970000
110 3 0     8.392950000     4.582710000     4.189430000
111 3 0    11.483500000     1.779700000     3.972510000
112 3 0    11.581800000     2.760540000     2.755730000
113 3 0    11.916500000    11.278800000     2.357630000
114 3 0    12.122900000     9.641820000     2.718040000
115 3 0     7.098950000     6.306460000     3.658990000
116 3 0     6.096350000     5.160930000     4.174930000
117 3 0     2.705040000     5.968120000     8.659050000
118 3 0     2.893910000     4.578090000     7.874820000
119 3 0     5.970020000     0.177415000     1.676270000
120 3 0     6.491290000    11.810200000     0.257933000
121 3 0     7.491050000     5.388370000    10.389500000
122 3 0     8.885800000     4.712770000    10.778600000
123 3 0     9.085050000    10.396300000     1.710700000
124 3 0     7.542120000    10.741200000     2.192740000
125 3 0     9.937670000     0.294087000     8.460430000
126 3 0    11.149500000     1.380210000     8.106190000
127 3 0     8.421080000     1.740890000     0.913362000
128 3 0     8.209150000     3.260070000     1.101880000
129 5 0     4.556840000     3.021370000     1.284310000
130 5 0     1.979850000     9.608670000     4.286330000
131 5 0     2.207020000     0.232910000     4.249690000
132 5 0     9.281320000     2.891560000    10.302300000
133 5 0    11.697900000     2.698840000     7.393280000
134 5 0    10.292500000    11.357100000    12.109600000
135 5 0    12.206400000     0.366263000    10.719600000
136 5 0     8.538270000     9.983570000     6.910760000
137 5 0    12.109300000     8.767200000     5.879050000
138 5 0     2.602050000    12.004800000     9.940370000
139 5 0     9.259390000     6.444180000     8.281160000
140 5 0     6.150850000     7.856480000     0.004884760
141 5 0     6.095250000     9.565660000    10.303600000
142 5 0     5.847040000     1.227980000     2.964230000
143 5 0     3.756590000     7.041430000     5.827110000
144 5 0     6.466310000     8.361830000     6.128200000
145 5 0     5.002550000     4.783200000     5.496760000
146 5 0     4.102480000     6.389640000    11.546900000
147 5 0    11.631400000     9.360450000    10.733100000
148 5 0     6.637590000     6.056180000     7.489000000
149 5 0    10.084400000    11.507500000     5.027230000
150 5 0    12.208300000     4.988320000     0.606470000
151 5 0     6.960860000     4.347850000     1.275590000
152 5 0     0.262067000     6.769020000    10.696200000
153 5 0    11.719300000     2.380600000     0.846874000
154 5 0     5.239860000     2.720010000     9.434690000
155 5 0     8.285070000     0.024942700     8.602490000
156 5 0     9.977940000     8.100400000     4.395650000
157 5 0     5.048820000     9.351280000     1.821130000
158 5 0     3.793660000     9.785370000     9.131450000
159 5 0     2.882000000     2.840780000     8.281810000
160 5 0     5.972860000     5.204120000     9.841060000
161 5 0     9.544130000     4.086010000     7.037180000
162 5 0     1.642450000    10.289800000     0.280033000
163 5 0     7.690400000     2.375370000     7.728060000
164 5 0     0.395800000     6.148370000     6.598690000
165 5 0     6.901410000     8.067690000     3.602030000
166 5 0     3.146110000     4.156980000     3.189850000
167 5 0    10.419200000     8.977590000     8.229250000
168 5 0     2.491710000     8.429430000     2.029970000
169 5 0     7.490790000    11.684800000    11.233000000
170 5 0     8.640190000     7.130530000     0.551971000
171 5 0     0.763894000     4.153590000     4.745430000
172 5 0    10.419800000     6.377600000     2.428250000
173 5 0     3.899230000     9.634580000     6.376970000
174 5 0     0.106627000     0.413905000     5.724450000
175 5 0     2.603820000     7.391100000     9.880170000
176 5 0     2.184620000     0.507844000     7.363610000
177 5 0     4.390620000     1.959400000     5.264300000
178 5 0     4.309260000     1.220260000    11.546100000
179 5 0     0.413612000     2.985900000     9.712220000
180 5 0     0.589892000     0.062338400     1.652320000
181 5 0     8.672620000     1.419800000     3.765630000
182 5 0     2.432160000     5.853060000     1.299100000
183 5 0     9.375030000     4.672040000     4.309410000
184 5 0    11.165000000     2.680610000     3.659350000
185 5 0    11.418000000    10.405700000     2.794620000
186 5 0     6.976230000     5.274580000     3.701580000
187 5 0     2.546280000     5.509970000     7.804720000
188 5 0     5.827940000    11.690900000     0.978672000
189 5 0     8.506250000     5.604350000    10.575500000
190 5 0     8.218150000    10.056600000     2.019870000
191 5 0    10.904700000     0.458490000     8.405280000
192 5 0     8.784750000     2.604980000     0.664582000
