# Position data file
 
287 atoms
5 atom types
 
    0.000000000    12.239000000 xlo xhi
    0.000000000    15.074000000 ylo yhi
    0.000000000    13.358706000 zlo zhi
    0.000000000    -2.809764000     0.000000000 xy xz yz
 
Masses
 
1    26.982000000
2    12.011000000
3     1.008000000
4    14.007000000
5    15.999000000
 
Atoms
 
1 1 0    10.772500000     7.342640000     6.538190000
2 1 0    12.172600000     0.139447000     0.180762000
3 1 0     1.565050000     6.545870000     5.834010000
4 1 0     7.793950000     8.341720000     7.504890000
5 1 0     9.136380000    14.015800000     0.678361000
6 1 0     0.388929000     0.895851000    12.769200000
7 1 0     4.684620000     7.595900000     6.728040000
8 1 0     3.397330000    15.014200000    13.334500000
9 2 0    11.475400000    12.553700000     1.403680000
10 2 0    -1.995220000     2.557080000    12.102800000
11 2 0    -1.006070000     5.188470000     5.001300000
12 2 0    10.309700000     9.832860000     7.846750000
13 2 0     0.165799000     8.551360000     4.312900000
14 2 0     9.195690000     6.434890000     8.995360000
15 2 0    10.417600000     1.199690000     2.194960000
16 2 0     9.793170000    13.790900000    10.225100000
17 2 0     6.772210000    13.588100000     2.403960000
18 2 0     2.811800000     1.318590000    10.945900000
19 2 0     4.024690000     5.894800000     4.464790000
20 2 0     5.379270000     8.880850000     9.246210000
21 2 0     6.086470000    10.053600000     5.932380000
22 2 0     3.448560000     5.097560000     7.562020000
23 2 0     5.004840000     2.345970000     1.135370000
24 2 0     4.660930000    12.273000000    12.696500000
25 2 0    11.624500000    10.163800000     2.350840000
26 2 0    -1.975810000     4.782540000    10.750700000
27 2 0    11.157400000     3.267610000     3.481290000
28 2 0    -1.975990000    11.483200000     9.580380000
29 2 0     4.820290000    12.805200000     3.942340000
30 2 0     4.729210000     2.571780000     9.860580000
31 2 0     6.104890000     4.993600000     3.282690000
32 2 0     3.610690000    10.540000000     9.871870000
33 2 0     6.106090000    12.852500000     3.559960000
34 2 0     3.407190000     2.171030000     9.857230000
35 2 0     4.747590000     4.936950000     3.645810000
36 2 0     4.812840000     9.859950000    10.252000000
37 2 0    -0.122890000    11.415000000     2.002670000
38 2 0     9.696000000     3.748590000    11.446700000
39 2 0    10.570000000     4.324560000     4.084090000
40 2 0    -1.325750000    10.931100000     8.526830000
41 2 0     0.299188000     9.675810000     3.379490000
42 2 0     9.172080000     5.419430000    10.066200000
43 2 0    10.117400000     2.459450000     2.921000000
44 2 0    -1.601380000    12.834300000     9.648110000
45 2 0     6.891780000    12.021300000     4.393620000
46 2 0     2.727300000     3.051810000     8.931350000
47 2 0     4.204110000     3.760620000     3.083670000
48 2 0     5.279250000    10.063800000    11.567900000
49 2 0     1.409560000    10.499300000     3.281000000
50 2 0     8.006460000     4.908370000    10.542800000
51 2 0     8.943880000     3.060740000     3.269830000
52 2 0    -0.427055000    12.898400000     8.873770000
53 2 0     5.970320000    11.352100000     5.154050000
54 2 0     3.625450000     3.986920000     8.518340000
55 2 0     5.137200000     3.233310000     2.253590000
56 2 0     4.523750000    10.820900000    12.499700000
57 3 0     0.572857000     7.059210000     7.971100000
58 3 0     8.603970000     7.486530000     5.406020000
59 3 0     7.395800000     0.167452000    12.176600000
60 3 0     1.885010000     0.211511000     1.543760000
61 3 0     2.636450000     8.776600000     6.665740000
62 3 0     6.554330000     6.333590000     7.077360000
63 3 0     5.449800000     1.192310000    13.347500000
64 3 0     1.380170000    13.824700000    13.120400000
65 3 0    10.825000000     9.654620000     1.826190000
66 3 0    -0.971925000     5.193720000    10.681000000
67 3 0    -0.073062900     2.984060000     3.339630000
68 3 0     9.462380000    11.007300000    10.098200000
69 3 0     4.013420000    13.291000000     3.425340000
70 3 0     5.530230000     2.237920000    10.493000000
71 3 0     6.862700000     5.730720000     3.486130000
72 3 0     3.226050000    10.318800000     8.911190000
73 3 0     7.977040000    11.982800000     4.462310000
74 3 0     1.646900000     2.959440000     8.615330000
75 3 0     3.176630000     3.480240000     3.125670000
76 3 0     6.301250000     9.803710000    11.876200000
77 3 0     2.353560000    10.338200000     3.740340000
78 3 0     6.896190000     5.048260000    10.436000000
79 3 0     7.894140000     2.686140000     3.233560000
80 3 0     0.227047000    13.670200000     8.485210000
81 3 0     7.590760000    11.155500000     8.559460000
82 3 0     7.319300000    12.600800000     8.154500000
83 3 0    11.939000000     7.227530000     1.327600000
84 3 0    11.572500000     6.001480000     2.081930000
85 3 0     6.503790000     7.661120000    11.789600000
86 3 0     5.273400000     7.281600000    12.558500000
87 3 0     9.774190000    13.365100000     4.415990000
88 3 0    10.870300000    14.019500000     3.638700000
89 3 0     4.414960000    14.829500000     9.631490000
90 3 0     4.743890000     0.505003000     8.155720000
91 3 0     2.736730000     5.264300000     0.616154000
92 3 0     2.360170000     5.241550000     2.049300000
93 3 0    -1.471370000     2.053430000     8.855300000
94 3 0     9.505050000     2.408330000     7.837200000
95 3 0     2.842660000    11.354300000     7.063070000
96 3 0     1.622300000    10.640900000     7.644800000
97 3 0     0.645249000    13.948200000    11.189500000
98 3 0     0.468872000     0.017873700     9.989450000
99 3 0     2.526040000     9.042870000     0.505503000
100 3 0     2.080180000     7.492160000     0.850801000
101 3 0     3.811130000     1.328420000     6.058750000
102 3 0     5.026970000     2.112300000     6.460170000
103 3 0    10.054200000    14.174500000     6.979660000
104 3 0     9.893470000     0.599771000     7.189860000
105 3 0    -0.895546000     3.767960000     7.700770000
106 3 0     0.260735000     4.719540000     7.451830000
107 3 0     7.732570000     7.230640000    13.090600000
108 3 0     8.699750000     8.414970000    13.039800000
109 3 0     0.559117000     8.419550000     9.538700000
110 3 0     1.945920000     8.005240000     8.936700000
111 3 0    -1.969150000     9.270420000    10.452100000
112 3 0    -1.566510000     7.997200000     9.447070000
113 3 0     5.830710000    11.949700000     9.331030000
114 3 0     5.921560000    12.674400000    10.672500000
115 3 0     8.866310000     6.575080000     1.090210000
116 3 0     9.250530000     5.406410000     1.976880000
117 3 0     2.554860000     1.098880000     4.318240000
118 3 0     2.232380000     2.590530000     4.809890000
119 3 0    -2.394670000     7.221440000    12.450000000
120 3 0    -1.350020000     7.692900000    11.254100000
121 3 0     8.861080000     8.952040000     0.506286000
122 3 0     8.603730000     8.888140000     2.132800000
123 3 0     5.777170000     0.937157000     3.443750000
124 3 0     4.450300000     0.354882000     3.883720000
125 3 0     1.152300000     3.572440000    11.528400000
126 3 0     1.324490000     5.306310000    11.685500000
127 3 0     4.350120000     4.099870000    13.357600000
128 3 0     2.680600000     4.476110000    11.555800000
129 3 0     5.990150000     3.510320000     4.830170000
130 3 0     6.494000000     3.648970000     6.324380000
131 3 0     6.413300000     8.216020000     0.718862000
132 3 0     6.152270000     6.615760000     0.882554000
133 3 0     4.164520000     6.112300000    11.190500000
134 3 0     3.117570000     7.098900000    11.516900000
135 3 0     5.817910000     0.329279000     6.249660000
136 3 0     7.119650000    14.860600000     5.520660000
137 3 0     8.182910000     4.036840000    12.863300000
138 3 0    10.491400000     5.073460000     0.565274000
139 3 0     0.730278000    11.889600000     5.680020000
140 3 0    -0.247503000    12.802900000     4.823900000
141 3 0    10.381100000     9.659980000     4.848860000
142 3 0     9.038810000    10.013700000     4.356600000
143 3 0     1.160180000     2.635850000     1.431800000
144 3 0     0.439633000     3.957600000     1.099600000
145 3 0    -0.360110000     1.606980000     5.112240000
146 3 0    -0.830105000     0.287180000     5.647130000
147 3 0     7.824300000     4.335610000     7.405100000
148 3 0     6.555710000     4.468480000     8.272690000
149 3 0     2.421320000     9.648070000    12.629500000
150 3 0     0.178280000    10.769400000    13.007400000
151 3 0     0.083956600    12.196100000    12.585200000
152 3 0     1.683900000    12.088100000    11.926600000
153 3 0     6.551700000     9.959990000     2.626470000
154 3 0     4.948020000     9.533640000     2.625860000
155 3 0     0.417450000     7.137820000    12.214000000
156 3 0     1.299990000     7.263350000    10.930700000
157 3 0     6.765300000     2.578440000    13.219200000
158 3 0     6.414520000     2.527890000    12.510200000
159 3 0     1.742930000     1.193150000     6.360270000
160 3 0     0.753623000     0.018301100     6.602170000
161 3 0     7.757930000     0.395949000     9.722640000
162 3 0     8.514620000     1.756560000     9.832000000
163 3 0     0.442557000     1.299270000     8.433750000
164 3 0     0.376587000     1.926940000     9.934380000
165 3 0     7.211510000    14.685800000     7.830040000
166 3 0     6.387670000    14.093000000     9.047770000
167 3 0     5.830440000    10.125700000     0.633010000
168 3 0     3.470830000    10.736600000    12.670800000
169 3 0     8.937470000     0.111499000     3.227550000
170 3 0     8.986420000     0.632302000     4.772820000
171 3 0     3.084550000     8.340790000     2.435480000
172 3 0     3.532090000     8.542290000     4.103310000
173 3 0     8.462640000     2.741190000     6.067680000
174 3 0     7.847640000     1.442850000     6.536810000
175 3 0     8.977850000    10.744200000    11.882000000
176 3 0    -0.955074000    10.069000000    12.353800000
177 3 0     2.011710000    14.179500000     3.464090000
178 3 0     1.027570000     0.245170000     3.711970000
179 3 0     1.133420000    12.941500000     0.323226000
180 3 0    -1.976710000    13.348900000    12.212000000
181 3 0     3.447760000    13.345800000     6.827540000
182 3 0     3.973970000    13.111200000     8.317260000
183 3 0     8.422980000    12.429000000     6.521930000
184 3 0     9.654320000    11.807300000     5.692050000
185 3 0     7.308270000     7.866590000     3.553110000
186 3 0     8.656010000     7.279070000     3.114080000
187 5 0     0.250205000     6.907260000     6.979190000
188 5 0     9.002310000     7.738850000     6.258760000
189 5 0     7.642580000    14.856700000    13.069700000
190 5 0     1.763100000     0.359069000     0.551570000
191 5 0     2.861940000     7.827350000     6.626450000
192 5 0     6.475680000     7.248110000     6.775670000
193 5 0     7.989710000     0.239781000     0.054545500
194 5 0     4.435470000    14.778400000     0.059173100
195 5 0     7.876850000    13.195200000     1.962660000
196 5 0     1.721650000     1.735160000    11.527900000
197 5 0     2.780060000     5.753850000     4.614790000
198 5 0     6.652920000     8.927370000     9.054130000
199 5 0    10.271400000    12.570900000     1.125410000
200 5 0    -0.713690000     2.497970000    12.183500000
201 5 0     0.180095000     5.418340000     4.837550000
202 5 0     9.097450000     9.617500000     8.097270000
203 5 0     1.260000000     8.059740000     4.756490000
204 5 0     8.124580000     6.996420000     8.691570000
205 5 0     9.533850000     0.243349000     2.142740000
206 5 0     0.926720000    14.198500000    10.370200000
207 5 0     0.081702100    13.561800000     1.167300000
208 5 0     9.440060000     1.708140000    12.579000000
209 5 0    10.472000000     5.581270000     6.000930000
210 5 0    -1.163180000     9.030440000     7.221490000
211 5 0    -0.967293000     8.188760000     4.804160000
212 5 0    10.317300000     6.698380000     8.433710000
213 5 0    11.547100000     1.118140000     1.659730000
214 5 0     9.562300000    14.186500000    11.373500000
215 5 0     7.273360000     9.727980000     6.236110000
216 5 0     2.303400000     5.188360000     7.041420000
217 5 0     3.776340000     2.113980000     0.855969000
218 5 0     5.820900000    12.774600000    12.576300000
219 5 0     5.005130000     9.396580000     6.197150000
220 5 0     4.454640000     5.849100000     7.384090000
221 5 0     6.040910000     1.898870000     0.560557000
222 5 0     3.621400000    12.930000000    12.918900000
223 5 0     6.148350000    14.676500000     2.025030000
224 5 0     3.461790000     0.298442000    11.383600000
225 5 0     4.694780000     6.807250000     4.979380000
226 5 0     4.549480000     8.132830000     8.653650000
227 5 0     1.173440000    11.544300000     2.464000000
228 5 0     8.311790000     3.980090000    11.560900000
229 5 0     9.178840000     4.199460000     4.038400000
230 5 0    -0.234555000    11.616100000     8.209450000
231 5 0     4.658160000    11.894300000     4.973160000
232 5 0     4.882340000     3.728280000     9.109900000
233 5 0     6.391800000     3.871840000     2.451520000
234 5 0     2.946740000    11.387300000    10.540100000
235 5 0     6.985780000    11.677800000     7.988850000
236 5 0    -0.042929900     6.742020000     2.220840000
237 5 0     6.184660000     7.554030000    12.743700000
238 5 0    10.578300000    13.130200000     3.912360000
239 5 0     5.104850000     0.042656500     8.998570000
240 5 0     2.891110000     5.772110000     1.419310000
241 5 0     9.898000000     2.591530000     8.768740000
242 5 0     2.268330000    10.558400000     6.917950000
243 5 0    -0.045147200    14.767600000    11.291800000
244 5 0     2.080890000     8.399720000     1.214650000
245 5 0     4.418530000     1.395390000     6.833200000
246 5 0    10.578400000    14.986400000     7.053640000
247 5 0    -0.018992300     4.001930000     8.046560000
248 5 0     8.690260000     7.455470000    13.232900000
249 5 0     1.191250000     7.646520000     9.451830000
250 5 0    -1.281980000     8.602070000    10.181100000
251 5 0     5.456020000    12.737600000     9.816760000
252 5 0     9.484140000     6.341240000     1.817000000
253 5 0     2.600260000     1.728470000     5.095430000
254 5 0    -1.406720000     7.081550000    12.127100000
255 5 0     8.806160000     9.486240000     1.314680000
256 5 0     5.229150000     0.809151000     4.237390000
257 5 0     1.581050000     4.422350000    11.309100000
258 5 0     3.903620000     4.683340000    11.649200000
259 5 0     6.213960000     2.962590000     5.574380000
260 5 0     6.511340000     7.421100000     1.292500000
261 5 0     3.956490000     7.106700000    11.044500000
262 5 0     6.786670000     0.042515300     6.395290000
263 5 0    11.142400000     4.350490000     0.503797000
264 5 0     0.670768000    12.761400000     5.228760000
265 5 0     9.821930000    10.463700000     4.755090000
266 5 0     1.254400000     3.599780000     1.607680000
267 5 0    -0.429705000     0.638448000     4.785970000
268 5 0     6.881240000     4.575130000     7.336240000
269 5 0    -0.056382300     9.889480000    12.645600000
270 5 0     1.114840000    12.271900000    12.729200000
271 5 0     5.644390000    10.170900000     2.308580000
272 5 0     1.363600000     6.963080000    11.926800000
273 5 0     4.215570000     4.986070000    13.028300000
274 5 0     1.231560000     0.721465000     7.132290000
275 5 0     7.900710000     1.164350000    10.335700000
276 5 0    -0.148307000     1.359680000     9.262580000
277 5 0     7.350820000    14.214600000     8.715300000
278 5 0     3.309510000     9.857310000    12.999900000
279 5 0     8.567930000    14.981000000     4.272050000
280 5 0     3.819010000     8.310100000     3.173410000
281 5 0     8.719600000     1.925700000     6.540010000
282 5 0     9.263520000     9.833260000    12.123100000
283 5 0     1.840860000     0.037955500     3.228330000
284 5 0    -1.520050000    12.570400000    12.735100000
285 5 0     3.271870000    12.899500000     7.676470000
286 5 0     9.356880000    12.633100000     6.212710000
287 5 0     8.257070000     8.079030000     3.550710000
