ITEM: TIMESTEP
0
ITEM: NUMBER OF ATOMS
192
ITEM: BOX BOUNDS xy xz yz pp pp pp
0.0000000000000000e+00 1.2228263000000000e+01 0.0000000000000000e+00
0.0000000000000000e+00 1.2228263000000000e+01 0.0000000000000000e+00
0.0000000000000000e+00 1.2228263000000000e+01 0.0000000000000000e+00
ITEM: ATOMS id type x y z vx vy vz
2 3 4.06877 3.69497 2.19238 0.00233649 -0.00560748 0.0102429
103 3 0.30733 0.850031 1.50466 -0.0201021 -0.0203622 0.0199606
104 3 1.43974 0.368926 2.43648 -0.0182311 -0.0232334 -0.0104278
180 5 0.633153 0.079337 2.0166 -0.00126007 0.00601311 -0.00454643
5 3 1.6495 0.273447 4.77277 -0.0143236 -0.0165251 0.00729506
6 3 3.04076 0.733779 4.23007 0.000432328 -0.00626158 -0.02033
85 3 0.149525 3.56402 4.46249 -0.0103326 0.00954774 -0.0230447
131 5 2.37166 0.059737 4.06246 -0.000802171 0.00264331 0.00607757
171 5 0.877508 4.04455 4.88111 0.00631411 0.00293033 -0.00634828
174 5 0.082137 0.516982 5.79317 0.000161609 -0.00375146 -0.000430474
10 3 0.073137 3.31654 6.4367 -0.00115517 -0.00010947 0.00656151
61 3 2.52229 2.56749 7.67797 -0.0236766 -0.0239653 -0.0202317
62 3 1.96117 3.12238 9.05474 0.0112443 -0.00640753 0.0183054
91 3 0.294765 0.028537 6.64257 0.0187996 0.0170698 -0.00403683
92 3 0.068137 1.36237 6.20576 0.0104693 -0.0207049 0.018121
96 3 2.50259 0.094309 8.28528 -0.0078701 -0.0184021 0.0203708
101 3 0.024537 3.00946 9.02543 -0.00138716 -0.023329 -0.0125737
159 5 2.77223 3.09028 8.46785 -0.00287654 -0.00602287 0.000813564
176 5 2.47634 0.350674 7.31623 -0.00658948 0.00494724 -0.00456541
19 3 1.26774 0.011237 10.2444 -0.00332935 0.00129814 0.0222376
20 3 2.8172 0.367867 10.5331 -0.00878951 -0.0233385 -0.00555185
102 3 0.550374 3.86245 10.1912 -0.0113019 -0.00380719 -0.0183097
179 5 0.524635 2.97105 9.84626 0.00245894 -0.000201027 -0.00476135
44 3 0.902572 5.40652 0.899731 0.018746 0.00208085 -0.00024834
107 3 2.50676 5.40178 2.14183 -0.0185087 0.0167704 0.00170233
108 3 2.41952 6.91125 1.47897 0.0178441 0.0152299 0.022646
150 5 0.031637 4.95274 0.59583 0.000473341 -0.0038678 0.00381178
182 5 2.38289 5.88335 1.29132 -0.0023292 -0.00707963 0.00105825
75 3 1.97481 4.29505 3.90576 -0.0120953 0.00524101 0.014725
76 3 3.48562 4.6298 4.1654 0.0206599 0.000231391 -0.02285
86 3 0.513078 4.87046 5.32884 0.0174119 0.00416358 0.0116697
143 5 3.92465 6.97835 5.6831 -0.00138836 0.00397633 0.00717917
166 5 2.92269 4.33738 3.45264 -0.00132439 -0.00482585 -0.0046103
30 3 3.36608 6.50158 6.4107 0.0231761 -0.0113514 -0.0225249
72 3 0.774036 5.80956 7.06032 -0.000298686 -0.000776307 -0.0166844
117 3 2.48041 6.48612 8.36712 0.00113795 0.00437659 -0.00714113
118 3 2.87099 4.97292 7.95434 -0.00706538 -0.00314593 0.0219341
187 5 2.60865 5.85832 7.63096 0.00306142 -0.00557373 0.00299332
36 3 3.63506 5.75602 12.1589 0.0244181 -0.009881 -0.00268118
93 3 3.14166 7.06117 10.2427 0.0129272 -0.015709 -0.00873153
94 3 1.63758 7.51897 9.97199 0.0056916 0.0193805 0.0188775
175 5 2.54544 7.50764 9.56008 0.00589146 0.00115874 0.00118702
68 3 1.03714 10.8983 0.488599 -0.0182671 -0.0193283 0.0116984
79 3 2.1503 8.56455 2.73391 0.0246824 0.00256789 -0.00913373
80 3 2.21211 9.09 1.20506 0.000775309 -3.35856e-05 0.00848511
162 5 1.49753 10.125 0.043737 0.00601862 -0.00198976 0.00643351
168 5 2.59186 8.44843 1.86566 -0.00399882 0.00478564 0.0034893
3 3 1.93116 10.552 4.22038 -0.00925518 0.0124731 -0.0236964
4 3 2.43006 9.49508 5.14466 -0.027538 0.0237606 -0.00362981
17 3 0.733545 9.01455 5.50616 0.0210164 0.0127185 0.0045569
130 5 1.80753 9.6091 4.3836 0.000597332 -0.00460593 -0.00530956
137 5 0.000337 8.56218 6.01645 -0.00461495 0.00324578 0.000452411
90 3 3.53659 9.9762 7.37914 0.0166282 0.00898313 0.0108013
95 3 3.03637 11.9727 6.82498 -0.00721561 0.0187544 0.015761
158 5 3.54057 9.86107 9.15619 0.00664436 -0.00557636 0.000543915
173 5 3.8292 9.78449 6.45672 -0.000643032 -0.00495061 -0.00293217
59 3 3.04783 8.98995 9.33327 -0.0202096 -0.000645069 -0.025681
60 3 2.98716 10.5662 9.49893 0.00271211 -0.00455807 -0.0144819
67 3 0.774374 9.84067 11.6492 0.017014 0.0154797 0.0134807
138 5 2.1903 12.1857 9.91771 0.00184951 -0.000284196 0.00109026
27 3 5.91961 2.30318 2.39545 -0.0257872 -0.00489703 -0.00859798
119 3 5.92541 0.287648 1.78525 -0.015723 -0.00491328 -0.00485756
129 5 4.79944 3.34676 1.65904 -0.00322344 0.000579663 -0.00305949
142 5 6.00469 1.46852 2.95642 0.000107875 -0.00350674 -0.00104446
28 3 6.89763 1.51434 3.29478 -0.0197959 -0.0237442 -0.0139256
97 3 5.04701 1.55365 4.59719 0.0102109 0.0113329 0.026885
98 3 4.81236 2.80191 5.56682 -0.0228831 0.0238904 0.0187925
177 5 4.53853 1.8611 5.36979 -0.00187059 0.00155966 -0.00100366
51 3 4.36566 2.85015 9.08008 -0.0261468 -0.0140288 -0.00725304
69 3 7.79775 1.43958 7.99749 -0.0198321 -0.0235705 0.0263671
70 3 6.64427 2.32986 8.0954 0.0205796 -0.0206511 -0.01903
163 5 7.57848 2.39118 7.85338 0.00451101 -0.00493818 -0.00254317
52 3 5.20095 1.99309 10.1043 -0.00541321 0.0255905 0.0213331
99 3 4.67466 0.765804 12.201 0.00485839 0.0236448 -0.0130846
100 3 4.10434 2.14439 12.225 -0.0162825 0.00311356 0.0264054
154 5 5.3161 2.55468 9.32715 0.000395273 0.00431167 0.000715139
178 5 4.21086 1.3884 11.6429 0.00339806 -0.00413122 -0.00400204
1 3 5.14866 4.08368 1.14496 -0.0221898 -0.00518141 -0.0265046
45 3 7.01956 4.72632 2.14713 0.0106777 -0.00613842 0.00103128
46 3 7.54478 5.49524 0.89066 -0.02079 -0.0114108 -0.0237166
84 3 7.94586 7.41877 0.429601 -0.0141749 -0.00847624 0.0203828
140 5 6.1901 7.63423 0.161352 0.000206504 0.000339076 -0.00239817
151 5 7.09979 4.63343 1.16982 -0.00326679 -0.00517267 0.00337326
29 3 4.10793 7.84148 6.04673 0.023937 -0.0131784 0.00180806
34 3 4.76292 5.46523 5.49983 -0.0258133 -0.00225921 -0.0242923
115 3 6.78829 6.3237 3.49557 0.0118637 -0.00512042 0.00189831
116 3 6.35311 5.12455 4.44754 -0.0103453 0.0183255 0.00564794
145 5 5.09607 4.53117 5.62566 -0.00372508 0.00540716 -0.00170425
165 5 6.61715 7.91818 3.43313 0.00307484 -0.00250122 -0.000912983
186 5 7.01509 5.41947 3.77148 -0.00309354 0.00187961 -0.00201828
33 3 5.80386 4.73865 6.26346 -0.0229997 0.00226687 0.0254617
39 3 6.41507 6.97067 7.03572 -0.0129997 -0.023395 -0.0136422
40 3 7.67594 6.23479 7.47669 0.0261883 0.00913797 0.0108525
148 5 6.66955 6.0912 7.47977 -0.00245944 -0.000222927 0.00241392
23 3 5.49754 6.98793 12.0378 0.0138527 -0.0176982 0.00161502
35 3 4.66984 5.48938 10.9667 -0.0229337 0.00495031 0.00133376
63 3 5.89944 4.0797 9.7637 0.0124802 0.00230919 0.0170698
64 3 6.32455 5.54364 9.19635 0.0081674 -0.00650217 -0.0219765
121 3 7.79052 5.20705 10.4505 0.0224363 0.0131858 -0.00465088
146 5 4.18242 6.22929 11.4546 -0.000128865 0.00622859 0.00376476
160 5 6.11235 5.03981 10.0459 -0.00151662 0.00253506 -0.00653638
24 3 5.70688 8.22527 0.742266 -0.00997497 -0.014864 0.0194261
57 3 5.15349 10.2025 1.52357 -0.022332 -0.0148302 -0.0219801
58 3 4.08916 8.99089 2.13133 0.0254382 0.0267712 -0.0114147
73 3 6.00114 8.37205 2.83789 0.000199307 0.00846162 -0.00610818
120 3 6.50918 12.0374 0.298464 0.00310574 0.0225085 -0.00878983
124 3 7.33269 10.4265 1.74203 -0.0273433 -0.0252251 0.0126695
157 5 5.07584 9.24043 1.88249 -0.000299545 0.00051966 0.00299457
188 5 5.83413 11.8174 0.995189 -0.000591739 -0.004517 0.00235467
190 5 8.11195 10.0988 2.24527 0.0010409 0.00123769 -0.00613266
31 3 6.48978 8.31399 5.16142 0.00507346 -0.0158996 9.70136e-05
74 3 7.40564 8.51238 3.26551 0.0236616 0.00999311 -0.0124189
32 3 7.28704 8.8355 6.39519 0.00142062 -0.00639445 0.0166364
89 3 4.74034 9.44293 6.53474 0.0171913 0.00626492 0.00430148
144 5 6.41953 8.39895 6.17289 0.00122326 -0.00520772 -0.00202695
25 3 6.02433 9.11473 11.0653 0.0222759 -0.0256851 -0.0224308
26 3 5.26943 9.89183 9.9557 -0.0188484 0.0101467 0.0218215
81 3 7.07477 11.1252 10.8555 0.0137819 0.0101184 -0.0112643
141 5 6.09605 9.87395 10.4692 -0.00269203 -0.00411471 -0.00451982
169 5 7.82335 11.8098 11.134 -0.00313596 -0.00218825 0.00585328
49 3 10.531 2.37644 0.737889 0.0112731 -0.0208181 -0.0014812
50 3 11.8223 3.25215 0.977751 -0.00246295 0.00110601 0.00446365
112 3 11.4847 2.29022 2.76205 0.0235297 0.00795115 -0.00350467
127 3 8.88887 1.72903 1.52389 0.0265909 0.0207956 -0.00664323
128 3 8.22855 3.06959 1.08257 0.000542799 0.0232864 -0.000648378
153 5 11.404 2.36393 1.12536 0.00481073 0.0015892 -0.00483981
192 5 8.64809 2.25783 0.732145 0.000491318 0.00640931 -0.00258816
105 3 9.44904 1.63796 3.87364 0.0102441 0.0151139 0.0107354
106 3 8.7356 0.324141 4.14137 0.0189735 0.0057721 0.0266514
109 3 9.83091 3.92159 4.06987 -0.0109236 -0.013016 0.0169701
111 3 11.6843 1.50132 4.14618 0.00124436 0.0210431 0.00137653
181 5 8.55189 1.25658 3.80238 -0.00252786 0.00340525 -0.00166221
184 5 11.2171 2.20903 3.73616 0.00212597 0.00438344 -0.00216968
9 3 10.8863 3.2225 6.96128 -0.0228788 -0.0136828 -0.00462391
65 3 8.65297 3.59334 6.87619 -0.0239219 0.00560404 0.0257382
125 3 9.96299 0.235337 8.62611 0.023458 0.0211645 -0.00660939
126 3 11.081 1.22806 8.22355 0.0156726 0.00573444 0.00263844
133 5 11.7641 2.81216 7.12653 -0.00593986 -0.000491451 0.00606318
191 5 10.9606 0.291298 8.50755 -0.00649445 0.00386147 -0.00544757
7 3 8.70241 2.83367 9.21338 0.0204703 0.0256629 0.0210685
8 3 9.01555 2.36054 10.6165 -0.00260639 0.026485 -0.0049777
13 3 12.1144 1.26525 11.0393 0.000958009 0.0253776 -0.0135482
14 3 11.6069 0.298981 9.98112 -0.00041673 0.00849783 -0.00663201
132 5 9.39149 2.99376 9.9678 -0.0017469 -0.00428862 0.00504618
135 5 12.0384 0.340103 10.9086 0.0060043 -0.00637454 -0.00329681
43 3 11.6174 5.34433 1.29273 0.0055062 0.00397457 -0.00902066
87 3 10.2247 5.6797 2.99501 -0.00423163 0.00744284 -0.0200253
88 3 9.94135 6.51841 1.69765 -0.00848889 -0.00921691 -0.0255813
170 5 8.84803 7.07828 0.485261 -0.00505989 0.00203169 -0.00307073
172 5 10.6247 6.23693 2.30314 -0.00318289 0.0011498 0.00369204
56 3 10.2757 7.82826 3.6979 0.0266843 -0.0153644 0.0254817
66 3 9.58535 4.42865 5.92911 0.0256756 -0.0253831 0.0143097
110 3 8.59108 4.92505 4.24242 -0.00606222 0.0250736 0.0272686
183 5 9.55404 4.79676 4.35648 -0.00271436 -0.00423484 0.00554032
21 3 9.88694 5.76338 7.79919 0.0166536 -0.00645696 0.0180569
22 3 9.2118 6.32462 9.06379 -0.0114848 0.0238385 -0.0234633
71 3 12.1858 6.95536 6.41842 -0.00055159 0.0119904 0.00354607
139 5 9.38378 6.5214 8.12434 -0.00672079 -0.00617063 0.00500768
161 5 9.48767 4.11637 6.86143 0.00412855 0.00159836 -0.00377278
164 5 12.1769 5.96271 6.59364 0.00628783 0.00589267 0.00038137
47 3 11.5899 6.19378 9.83381 0.0203544 0.0150819 0.0264894
48 3 12.0906 6.39687 11.3192 0.0270963 -0.0115273 0.0119144
83 3 8.8926 6.5504 11.889 -0.0228662 -0.023004 0.024909
122 3 9.22696 4.65316 10.6115 -0.0114825 0.0057552 0.0194117
152 5 11.9743 6.84807 10.4727 0.00611713 -2.87935e-05 -0.000734009
189 5 8.72785 5.49237 10.6136 -0.00536815 0.00499801 0.000968345
113 3 11.9235 10.9635 2.50469 -0.015131 -0.022566 0.0226078
123 3 8.8052 9.92613 1.58862 0.00239894 -0.00802815 0.0214722
185 5 11.3576 10.2521 2.7353 0.0017687 0.00356408 -0.000612098
16 3 8.79213 10.5674 5.99958 -0.0176083 -0.0219156 -0.00928407
18 3 11.3841 8.58609 5.47544 -0.00919441 -0.0181248 -0.0260141
41 3 10.6955 11.7274 5.44957 -0.00719176 -0.0232704 -0.0236752
42 3 10.4548 10.915 4.05004 -0.00418725 -0.0219093 -0.0140058
55 3 9.52012 9.11871 4.06932 0.0142691 0.00323105 0.00766559
114 3 11.9185 9.70161 3.21685 0.0121893 -0.0149088 -0.0129578
149 5 10.0016 11.3091 4.85209 0.00371442 0.00408115 0.00390379
156 5 10.0594 8.39033 4.45065 0.000495924 0.000436091 0.00210442
15 3 9.26306 9.74107 7.15042 0.0230934 -0.0159446 0.017793
54 3 8.29092 11.3439 7.7738 0.00418189 0.0041292 -0.0125063
77 3 11.5197 9.18936 7.44704 0.0221764 0.0187707 0.0120964
78 3 10.6313 8.22231 8.212 0.0256543 0.00349921 -0.0255282
136 5 8.38489 10.1743 6.86572 0.000559527 -0.000698359 0.00296331
155 5 8.43613 12.089 8.48678 -0.00191829 0.00589089 -0.00186215
167 5 10.8048 9.16182 8.10422 -0.00578775 -0.00104171 -0.000273952
11 3 10.3306 11.9499 11.9172 0.0186601 -0.00137607 -0.0200445
12 3 10.5982 10.5389 11.3253 0.00119125 0.0142748 0.0274992
37 3 11.5641 9.37106 9.65916 -0.0166543 0.0117823 -0.00557869
38 3 11.4683 8.57171 10.8821 0.0085713 0.026941 0.0193449
53 3 8.23509 11.8154 9.3967 0.0157613 0.0020184 0.00210342
82 3 8.59158 11.1842 11.3202 0.0152564 -0.0137245 0.0136254
134 5 9.98265 11.0432 12.0251 0.00654003 0.00596017 -0.00484774
147 5 11.6439 9.49924 10.6414 -0.00138438 0.00141856 0.00409298
ITEM: TIMESTEP
5
ITEM: NUMBER OF ATOMS
192
ITEM: BOX BOUNDS xy xz yz pp pp pp
0.0000000000000000e+00 1.2228263000000000e+01 0.0000000000000000e+00
0.0000000000000000e+00 1.2228263000000000e+01 0.0000000000000000e+00
0.0000000000000000e+00 1.2228263000000000e+01 0.0000000000000000e+00
ITEM: ATOMS id type x y z vx vy vz
2 3 4.06925 3.6925 2.19819 -0.000363929 -0.00425622 0.0129333
103 3 0.297018 0.840144 1.51436 -0.0212728 -0.018756 0.0185739
104 3 1.43235 0.357701 2.4325 -0.0109274 -0.0214745 -0.00530244
180 5 0.63243 0.0822861 2.01423 -0.00165012 0.00574493 -0.00493271
5 3 1.64344 0.265026 4.77519 -0.00981541 -0.017086 0.00238065
6 3 3.04177 0.731278 4.22017 0.00366411 -0.00361561 -0.0191802
85 3 0.143444 3.56824 4.45008 -0.0137002 0.00752994 -0.0263817
131 5 2.37112 0.0610499 4.0656 -0.0013784 0.00259512 0.0064619
171 5 0.880664 4.04606 4.878 0.00629313 0.00311985 -0.0060978
174 5 0.0822522 0.514895 5.79296 0.000299392 -0.00458617 -0.000425508
10 3 0.0726716 3.31609 6.44087 -0.000757564 -0.00170671 0.0101041
61 3 2.51055 2.55539 7.66828 -0.0231539 -0.0241361 -0.0180298
62 3 1.96694 3.1187 9.06383 0.0117742 -0.0083232 0.0180432
91 3 0.304243 0.0366318 6.63948 0.0191462 0.0150994 -0.00817041
92 3 0.0728934 1.35534 6.21556 0.00853743 -0.00734888 0.0210002
96 3 2.4985 0.0853997 8.29501 -0.00852543 -0.0170796 0.0181494
101 3 0.0228945 2.99788 9.01784 -0.0050422 -0.0229808 -0.0176019
159 5 2.77083 3.0873 8.46823 -0.00272505 -0.00590657 0.00065655
176 5 2.473 0.353183 7.31399 -0.0067722 0.00509583 -0.00434343
19 3 1.2656 0.0121637 10.2564 -0.0050316 0.00238582 0.0255109
20 3 2.81322 0.3568 10.5311 -0.00685411 -0.0207575 -0.00209046
102 3 0.54445 3.86176 10.1828 -0.0124041 0.001159 -0.01521
179 5 0.52591 2.97089 9.84392 0.00263247 -0.000451594 -0.00461249
44 3 0.911555 5.4068 0.899046 0.0170386 -0.00104308 -0.00251792
107 3 2.49791 5.41008 2.1433 -0.0168531 0.0162801 0.0043654
108 3 2.42842 6.9173 1.49028 0.0176994 0.00874763 0.0224695
150 5 0.0318733 4.95088 0.597805 0.000487269 -0.00357614 0.00408328
182 5 2.38172 5.87992 1.2918 -0.00235039 -0.00663044 0.000875204
75 3 1.97011 4.29738 3.91292 -0.00662617 0.00406754 0.0139074
76 3 3.49684 4.63022 4.15493 0.0241514 0.00143142 -0.0190835
86 3 0.521776 4.87238 5.33422 0.0173747 0.00346429 0.00980998
143 5 3.92389 6.98018 5.68667 -0.00162447 0.00334501 0.00707177
166 5 2.92191 4.33496 3.45027 -0.00178589 -0.00487195 -0.00485164
30 3 3.37802 6.49665 6.39908 0.0243894 -0.00845277 -0.0237077
72 3 0.775444 5.80914 7.05302 0.00610392 -0.000935934 -0.0124209
117 3 2.4812 6.48901 8.36494 0.00200434 0.0071439 -0.00161285
118 3 2.86738 4.971 7.96567 -0.00739905 -0.0044921 0.023366
187 5 2.61015 5.85547 7.63232 0.00295336 -0.00583451 0.0024603
36 3 3.64745 5.75192 12.1571 0.0250062 -0.00656256 -0.00426726
93 3 3.14778 7.05354 10.2382 0.0114985 -0.0147363 -0.00923495
94 3 1.64093 7.52838 9.98116 0.00782889 0.0182452 0.0177493
175 5 2.54835 7.50821 9.56076 0.00574578 0.00112456 0.0015249
68 3 1.029 10.8882 0.494307 -0.0142339 -0.0210824 0.0111876
79 3 2.16233 8.56652 2.72973 0.0231972 0.00535272 -0.00716523
80 3 2.21207 9.09005 1.20928 -0.00100272 0.000299609 0.008322
162 5 1.50049 10.1241 0.0469978 0.00581612 -0.0016811 0.00661924
168 5 2.58989 8.45078 1.8674 -0.00388104 0.00462078 0.00344943
3 3 1.92667 10.5596 4.20794 -0.00873674 0.017353 -0.0259682
4 3 2.41694 9.50684 5.14273 -0.0246946 0.0232122 -0.00382773
17 3 0.743219 9.0207 5.50817 0.017435 0.0117274 0.0035822
130 5 1.80783 9.60672 4.38099 0.000590063 -0.00490286 -0.00517022
90 3 3.54524 9.98027 7.38496 0.0180105 0.00726362 0.0123029
95 3 3.03346 11.9814 6.83249 -0.00417492 0.0156496 0.0140399
158 5 3.54394 9.8582 9.15642 0.00684831 -0.00589517 0.000389812
173 5 3.82884 9.78203 6.45522 -0.00077442 -0.00490389 -0.00303645
59 3 3.03814 8.9899 9.32042 -0.0184999 0.000466497 -0.025691
60 3 2.98752 10.5652 9.49245 -0.00125154 0.000640401 -0.0114538
67 3 0.782904 9.84806 11.6555 0.0169412 0.0139209 0.0113642
138 5 2.1913 12.1855 9.91816 0.00211525 -0.00056022 0.000704382
27 3 5.90601 2.30005 2.39177 -0.0285182 -0.00767069 -0.0060511
119 3 5.91759 0.283999 1.78128 -0.0155427 -0.00961697 -0.0109398
129 5 4.79782 3.34698 1.65747 -0.00324575 0.000305805 -0.00324002
142 5 6.00463 1.46679 2.95582 -0.000392612 -0.0034182 -0.00138237
100 3 4.09609 2.14689 0.0105357 -0.0166458 0.00643229 0.0283949
28 3 6.89002 1.5023 3.28868 -0.0102399 -0.0243287 -0.0103414
97 3 5.05284 1.55962 4.60983 0.0132893 0.0124316 0.0234225
98 3 4.8008 2.81329 5.57573 -0.023401 0.0213521 0.0167466
177 5 4.53755 1.86191 5.36935 -0.00204217 0.001692 -0.000752738
51 3 4.35371 2.8424 9.0766 -0.0214389 -0.0169945 -0.00662049
69 3 7.78865 1.42733 8.01039 -0.0165029 -0.0251423 0.0251877
70 3 6.65304 2.3204 8.08644 0.014131 -0.0171309 -0.0167503
163 5 7.5808 2.38868 7.8521 0.00477577 -0.00507379 -0.00259421
52 3 5.19784 2.00534 10.1159 -0.00698449 0.0234798 0.0250219
99 3 4.67809 0.776006 12.1955 0.00907292 0.0168623 -0.0086177
178 5 4.2125 1.38637 11.6408 0.00313895 -0.00395339 -0.00439105
154 5 5.31623 2.55692 9.32743 8.86067e-05 0.0046466 0.000410556
1 3 5.13812 4.08161 1.13144 -0.0200139 -0.00313605 -0.0275252
45 3 7.02489 4.72351 2.14824 0.0106453 -0.00505666 0.00342343
46 3 7.53382 5.48822 0.879235 -0.0230064 -0.0165811 -0.0219638
84 3 7.93744 7.41542 0.439987 -0.0193663 -0.00497428 0.0211507
140 5 6.19027 7.63432 0.160036 0.000449508 2.51765e-05 -0.00285617
151 5 7.09822 4.6309 1.17145 -0.00303244 -0.00494492 0.00314724
29 3 4.12018 7.83632 6.04818 0.0250903 -0.00728816 0.00411707
34 3 4.74932 5.46414 5.48779 -0.0284818 -0.00214852 -0.0238164
115 3 6.79394 6.32278 3.49655 0.0106898 0.00158289 0.00197253
116 3 6.34805 5.1336 4.44982 -0.00984532 0.0178679 0.00342945
145 5 5.09423 4.53391 5.62477 -0.00363382 0.00557188 -0.00185967
165 5 6.61884 7.91697 3.43275 0.00370002 -0.00230091 -0.000624059
186 5 7.01357 5.42026 3.77049 -0.00296858 0.00127704 -0.00193504
33 3 5.79287 4.73945 6.27732 -0.0210634 0.00100157 0.0298477
39 3 6.40852 6.95844 7.02913 -0.0131906 -0.0253964 -0.0127663
40 3 7.68794 6.23879 7.48248 0.0214214 0.00685287 0.0122733
148 5 6.6684 6.09114 7.48095 -0.00210785 -2.26646e-05 0.00231606
23 3 5.50449 6.97958 12.0388 0.0139205 -0.0156558 0.00224275
35 3 4.65824 5.49274 10.9675 -0.0233653 0.00838271 0.00181533
63 3 5.90583 4.0817 9.77238 0.0130348 0.00558396 0.0175711
64 3 6.32797 5.53973 9.18571 0.00548407 -0.00921054 -0.020465
121 3 7.80117 5.21364 10.4483 0.0196938 0.0130596 -0.0044071
146 5 4.18233 6.23231 11.4565 -0.000221161 0.00587209 0.00376642
160 5 6.11161 5.04105 10.0426 -0.00142897 0.0024453 -0.00678051
24 3 5.70085 8.21911 0.753355 -0.0140086 -0.00995399 0.0247449
57 3 5.142 10.1936 1.51333 -0.0235874 -0.0205534 -0.0190187
58 3 4.10312 9.00489 2.12453 0.0300606 0.0290826 -0.0156575
73 3 5.99954 8.37688 2.83407 -0.00643097 0.0107688 -0.00901369
120 3 6.51079 12.0485 0.294583 0.00317384 0.0219361 -0.00654914
124 3 7.3193 10.414 1.74848 -0.0261058 -0.0248469 0.0131166
157 5 5.07562 9.24078 1.88397 -0.000551952 0.000880025 0.00291914
188 5 5.83385 11.8152 0.996444 -0.000530644 -0.00421306 0.00264869
190 5 8.11244 10.0994 2.24223 0.000903926 0.00119316 -0.00600625
31 3 6.49193 8.3059 5.16238 0.00354818 -0.0164382 0.00371268
74 3 7.41704 8.5166 3.25946 0.0216093 0.00666121 -0.0117136
32 3 7.28732 8.83277 6.40372 -0.000346789 -0.00454373 0.0174334
89 3 4.74947 9.44625 6.53696 0.0190809 0.007113 0.00452759
144 5 6.42016 8.39636 6.17181 0.00130927 -0.00515496 -0.00228658
25 3 6.03548 9.10107 11.0547 0.0223231 -0.028837 -0.0202204
26 3 5.25914 9.89692 9.96625 -0.022279 0.010206 0.0204011
81 3 7.08266 11.1312 10.8503 0.017656 0.0137696 -0.00945217
141 5 6.09475 9.87194 10.4669 -0.00252777 -0.00393687 -0.00457798
169 5 7.82164 11.8086 11.1369 -0.00367725 -0.00265265 0.00558574
49 3 10.535 2.36638 0.736377 0.00460874 -0.0194039 -0.00460956
50 3 11.8209 3.25286 0.979586 -0.00317479 0.00181337 0.0028439
112 3 11.4959 2.29387 2.76089 0.0214004 0.00664272 -0.00104936
127 3 8.90164 1.73946 1.5206 0.0244912 0.020876 -0.00643102
128 3 8.22856 3.08164 1.08215 -0.00039199 0.0246621 -0.0011213
153 5 11.4066 2.36471 1.12299 0.00543523 0.00151915 -0.00464336
192 5 8.64837 2.26101 0.730858 0.000606015 0.00631614 -0.00255974
105 3 9.45468 1.64588 3.87888 0.0120039 0.0164538 0.0101645
106 3 8.74496 0.328151 4.15437 0.018432 0.0103623 0.025271
109 3 9.82548 3.91409 4.07775 -0.0108563 -0.0168819 0.0145606
111 3 11.6863 1.50985 4.14768 0.00667718 0.012945 0.00471461
181 5 8.55063 1.25819 3.80157 -0.00248451 0.00304396 -0.00157855
184 5 11.2181 2.21139 3.73501 0.0017823 0.00507347 -0.00244518
9 3 10.8737 3.21589 6.95943 -0.0272135 -0.0128174 -0.0027345
65 3 8.64117 3.59604 6.88942 -0.0229085 0.00539623 0.0271208
125 3 9.97438 0.245308 8.62247 0.0216744 0.0186945 -0.00787623
126 3 11.089 1.23079 8.22464 0.0164574 0.00513378 0.00173214
133 5 11.7612 2.81192 7.12953 -0.00559454 -0.000462905 0.00593147
191 5 10.9574 0.29328 8.50484 -0.00633424 0.00407316 -0.00540212
7 3 8.7138 2.84709 9.2245 0.0247916 0.0279191 0.023093
8 3 9.01472 2.37387 10.6147 -0.000927735 0.0264871 -0.00183152
13 3 12.1152 1.28043 11.0332 0.00226508 0.0344983 -0.0107785
14 3 11.6067 0.302975 9.97822 -0.000523635 0.00743434 -0.00492196
132 5 9.39051 2.99155 9.97025 -0.0021336 -0.0045064 0.00474542
135 5 12.0414 0.336794 10.9069 0.00584712 -0.00680346 -0.00354598
43 3 11.6205 5.34614 1.28743 0.00686331 0.00332434 -0.0120584
87 3 10.2219 5.68269 2.98588 -0.00700266 0.00431474 -0.0162383
88 3 9.93551 6.5144 1.68368 -0.0145085 -0.00694999 -0.0299839
170 5 8.84554 7.07929 0.483775 -0.00489769 0.00202077 -0.0028621
172 5 10.6232 6.23753 2.30502 -0.00266144 0.0012591 0.0037993
56 3 10.2893 7.81972 3.70971 0.027607 -0.0187584 0.0217132
66 3 9.59801 4.41642 5.9354 0.0249357 -0.0234211 0.0105132
110 3 8.58699 4.93767 4.2555 -0.0101401 0.02536 0.0250634
183 5 9.55276 4.7947 4.35927 -0.00242983 -0.00401573 0.00562348
21 3 9.89546 5.75938 7.80769 0.0172986 -0.00938164 0.016026
22 3 9.2058 6.33608 9.05319 -0.0126136 0.0218909 -0.0183605
71 3 12.1857 6.96084 6.42005 0.000128947 0.00988819 0.00300583
139 5 9.38042 6.51841 8.12681 -0.00669713 -0.00580583 0.00481387
161 5 9.48973 4.11714 6.8596 0.00409587 0.00147265 -0.00353515
164 5 12.18 5.96568 6.59378 0.00598746 0.00601067 0.000160651
47 3 11.6004 6.20171 9.84771 0.021247 0.0162033 0.028672
48 3 12.1041 6.39024 11.3258 0.027006 -0.0147562 0.0140711
83 3 8.88161 6.53814 11.9004 -0.0211019 -0.0261073 0.0207368
122 3 9.22149 4.65527 10.621 -0.0103515 0.00267245 0.0186467
152 5 11.9774 6.84806 10.4723 0.006138 1.72401e-05 -0.000937059
189 5 8.72518 5.49493 10.6141 -0.0052925 0.00525984 0.000985308
113 3 11.9178 10.9554 2.51474 -0.00703186 -0.0092263 0.0174
123 3 8.80675 9.92227 1.59885 0.0039536 -0.00746246 0.0191909
185 5 11.3582 10.2538 2.73496 0.000779202 0.00337088 -0.000698842
16 3 8.78226 10.5563 5.99586 -0.0217779 -0.0223264 -0.00558545
18 3 11.38 8.57711 5.46206 -0.00693797 -0.0177515 -0.0273402
41 3 10.6918 11.7155 5.43673 -0.00726735 -0.023961 -0.027269
42 3 10.4529 10.9045 4.04351 -0.00359944 -0.0200629 -0.0118801
55 3 9.52745 9.12011 4.07327 0.0149847 0.00243211 0.00802707
114 3 11.9267 9.6916 3.2122 0.0202874 -0.0248118 -0.00594919
149 5 10.0034 11.3112 4.85408 0.00363175 0.00409937 0.00400329
156 5 10.0596 8.39058 4.45175 0.000353152 0.00053722 0.00229313
137 5 12.2263 8.5638 6.01669 -0.00463813 0.00325645 0.000499543
15 3 9.27341 9.73321 7.16004 0.0179876 -0.0152803 0.0205017
54 3 8.29324 11.3461 7.76857 0.00510346 0.0047845 -0.00835179
77 3 11.5315 9.1987 7.45216 0.0249377 0.0186062 0.00856827
78 3 10.6434 8.22257 8.1993 0.0227623 -0.00267808 -0.0252377
136 5 8.38535 10.1739 6.86709 0.00128236 -0.000829959 0.00251071
155 5 8.43517 12.092 8.48576 -0.00193829 0.0060965 -0.0022277
167 5 10.8019 9.16137 8.10413 -0.00595485 -0.000725473 -0.000100038
11 3 10.3402 11.9494 11.9074 0.0198075 -0.000632978 -0.0192983
12 3 10.5978 10.5464 11.3406 -0.00255272 0.0154232 0.0333691
37 3 11.5556 9.37772 9.65618 -0.0171802 0.0148057 -0.00615213
38 3 11.4726 8.58418 10.8924 0.00865402 0.0225726 0.0217578
53 3 8.2424 11.8161 9.39858 0.0135036 0.000780185 0.00533716
82 3 8.59923 11.1781 11.3276 0.0151105 -0.0104092 0.0160515
134 5 9.98601 11.0461 12.0226 0.0068871 0.00565988 -0.00515443
147 5 11.6432 9.49998 10.6434 -0.00138406 0.00156583 0.00400347
ITEM: TIMESTEP
10
ITEM: NUMBER OF ATOMS
192
ITEM: BOX BOUNDS xy xz yz pp pp pp
0.0000000000000000e+00 1.2228263000000000e+01 0.0000000000000000e+00
0.0000000000000000e+00 1.2228263000000000e+01 0.0000000000000000e+00
0.0000000000000000e+00 1.2228263000000000e+01 0.0000000000000000e+00
ITEM: ATOMS id type x y z vx vy vz
2 3 4.06847 3.6907 2.20525 -0.00265671 -0.00299111 0.015221
103 3 0.285945 0.831647 1.52301 -0.0231367 -0.0148398 0.0158155
104 3 1.4291 0.347587 2.43131 -0.00187292 -0.0188707 0.000621107
180 5 0.631493 0.0850502 2.01167 -0.00210041 0.00527967 -0.00528108
5 3 1.63973 0.256433 4.77517 -0.00502974 -0.0171974 -0.00242001
6 3 3.04445 0.730239 4.21094 0.0070443 -0.000501666 -0.0176995
85 3 0.136104 3.57174 4.4363 -0.0153305 0.0066958 -0.0285252
131 5 2.37028 0.0623222 4.06892 -0.00198529 0.00248496 0.00681338
171 5 0.883784 4.04766 4.875 0.00616697 0.00325107 -0.005905
174 5 0.0824359 0.512414 5.79274 0.000434133 -0.00531127 -0.000434122
10 3 0.0723416 3.31485 6.44678 -0.000596216 -0.00319439 0.0135117
61 3 2.49926 2.54361 7.66034 -0.0218553 -0.022721 -0.0133214
62 3 1.9729 3.11405 9.07278 0.01202 -0.0102654 0.0177305
91 3 0.313947 0.0434535 6.63454 0.0197138 0.011989 -0.0114076
92 3 0.0766575 1.35494 6.22664 0.00649938 0.0055132 0.023156
96 3 2.49404 0.0773584 8.30312 -0.00936207 -0.0149525 0.0140138
101 3 0.0196496 2.98649 9.00805 -0.00773642 -0.022543 -0.0212475
159 5 2.7695 3.08436 8.46848 -0.00260091 -0.00588866 0.000348014
176 5 2.46956 0.355774 7.31192 -0.00702119 0.0052723 -0.00392263
19 3 1.26288 0.0136018 10.2698 -0.00566634 0.0033426 0.0281923
20 3 2.81058 0.34724 10.5312 -0.00349387 -0.0173662 0.00259534
102 3 0.537959 3.86366 10.176 -0.0135728 0.00643671 -0.0121497
179 5 0.527259 2.97059 9.84163 0.00275106 -0.00072826 -0.00454646
44 3 0.919498 5.40543 0.897199 0.0146242 -0.00445562 -0.00487439
107 3 2.48993 5.41794 2.14632 -0.0150534 0.0150212 0.00781736
108 3 2.43718 6.91985 1.50134 0.0172787 0.00137071 0.0216949
150 5 0.0321376 4.94916 0.599907 0.000584424 -0.00327919 0.0043166
182 5 2.38054 5.87674 1.29219 -0.00237181 -0.0060667 0.000676177
75 3 1.96824 4.29911 3.91966 -0.000791677 0.00285522 0.0130519
76 3 3.50966 4.63118 4.14621 0.0269536 0.00233666 -0.0159455
86 3 0.530443 4.87388 5.33861 0.0172779 0.00247421 0.00772127
143 5 3.92304 6.9817 5.69015 -0.00179291 0.00272873 0.0068327
166 5 2.92091 4.33251 3.4478 -0.00223237 -0.00490332 -0.00504175
30 3 3.39028 6.49304 6.38724 0.0244401 -0.00610095 -0.0233253
72 3 0.780225 5.80862 7.04795 0.0130345 -0.00109582 -0.00782815
117 3 2.48242 6.49321 8.36544 0.00288829 0.00956716 0.00350787
118 3 2.86358 4.96848 7.97768 -0.00782996 -0.0055438 0.0246114
187 5 2.6116 5.85249 7.63343 0.00284479 -0.00609773 0.00197537
36 3 3.65992 5.74941 12.1548 0.0246984 -0.0035161 -0.00490793
93 3 3.15312 7.04648 10.2335 0.00982939 -0.0134894 -0.00980778
94 3 1.64549 7.53719 9.9897 0.010461 0.0169583 0.0163548
175 5 2.55118 7.50876 9.56161 0.00557778 0.00108346 0.00187571
68 3 1.02293 10.8773 0.499844 -0.010076 -0.0223706 0.0110323
79 3 2.17331 8.56995 2.7271 0.0205464 0.00841882 -0.0029961
80 3 2.21106 9.09036 1.21331 -0.00305015 0.00101411 0.00772601
162 5 1.50335 10.1233 0.0503635 0.00566155 -0.00135246 0.00684986
168 5 2.58799 8.45304 1.86909 -0.00368315 0.00439231 0.00329241
3 3 1.92239 10.5689 4.19449 -0.00845435 0.0196494 -0.0277414
4 3 2.40557 9.51826 5.14106 -0.0205825 0.0224326 -0.00259094
17 3 0.750789 9.02616 5.50983 0.0126619 0.010021 0.00316551
130 5 1.80811 9.60423 4.37841 0.000519579 -0.00502035 -0.00514585
90 3 3.55462 9.98343 7.39128 0.019513 0.00535586 0.0127791
95 3 3.03238 11.9882 6.83884 2.54883e-05 0.0113778 0.011226
158 5 3.54741 9.85518 9.15658 0.00701227 -0.00618718 0.00024664
173 5 3.82844 9.77958 6.4537 -0.00081791 -0.00487407 -0.00305313
59 3 3.02938 8.99043 9.3076 -0.0164769 0.0016321 -0.0255639
60 3 2.98597 10.5668 9.48744 -0.00482061 0.00541025 -0.00865051
67 3 0.791174 9.85447 11.6604 0.0159939 0.0116395 0.00810817
138 5 2.19239 12.1851 9.91841 0.0022184 -0.00088217 0.000266696
27 3 5.89117 2.2955 2.38943 -0.0307765 -0.0104725 -0.00329473
119 3 5.90989 0.278113 1.77442 -0.0152099 -0.013809 -0.0163253
129 5 4.79619 3.34707 1.6558 -0.00327875 5.54922e-05 -0.00342141
142 5 6.00428 1.4651 2.95503 -0.00102076 -0.00333815 -0.00175683
100 3 4.08775 2.1504 0.0247802 -0.0166343 0.00715211 0.0281977
28 3 6.88765 1.49007 3.2845 0.000894555 -0.0245415 -0.00639653
97 3 5.06044 1.56601 4.62041 0.0172193 0.0130678 0.0187066
98 3 4.78893 2.82305 5.5835 -0.0241199 0.0175028 0.0142867
177 5 4.53648 1.86281 5.36905 -0.00225515 0.00194084 -0.000396333
51 3 4.34439 2.83315 9.07349 -0.0156867 -0.0199696 -0.00580516
69 3 7.78129 1.41469 8.02263 -0.0129189 -0.0251671 0.0236952
70 3 6.65815 2.31279 8.07868 0.00612355 -0.0132338 -0.0142933
163 5 7.58327 2.38609 7.85079 0.00512095 -0.00532257 -0.00264559
52 3 5.194 2.01666 10.1292 -0.0083571 0.0219357 0.0278308
99 3 4.68388 0.782472 12.1925 0.0141826 0.00887564 -0.00323284
178 5 4.21399 1.38449 11.6385 0.00280045 -0.0035302 -0.00469998
154 5 5.31618 2.55932 9.32757 -0.000301003 0.00494036 0.000152359
1 3 5.12861 4.08048 1.11751 -0.0180771 -0.00149415 -0.0280954
45 3 7.0302 4.72129 2.15055 0.0105827 -0.00382569 0.00581375
46 3 7.52184 5.47879 0.868697 -0.024822 -0.0209539 -0.0202055
84 3 7.92666 7.41372 0.450739 -0.0235369 -0.00194619 0.021841