LAMMPS (29 Oct 2020)
Reading data file ...
  triclinic box = (0.0000000 0.0000000 0.0000000) to (12.228263 12.228263 12.228263) with tilt (0.0000000 0.0000000 0.0000000)
  3 by 3 by 4 MPI processor grid
  reading atoms ...
  192 atoms
  read_data CPU = 0.034 seconds
chimesFF: 
chimesFF: 01000011011010001001001010011010100010101010011 0100010101101110110011101101001011011101100101  
chimesFF: 
chimesFF:       _____  _      _____  __  __  ______   _____   ______                _                      
chimesFF:      / ____|| |    |_   _||  \/  ||  ____| / ____| |  ____|              (_)                    
chimesFF:     | |     | |__    | |  | \  / || |__   | (___   | |__    _ __    __ _  _  _ __    ___        
chimesFF:     | |     | '_ \   | |  | |\/| ||  __|   \___ \  |  __|  | '_ \  / _` || || '_ \  / _ \ 
chimesFF:     | |____ | | | | _| |_ | |  | || |____  ____) | | |____ | | | || (_| || || | | ||  __/        
chimesFF:      \_____||_| |_||_____||_|  |_||______||_____/  |______||_| |_| \__, ||_||_| |_| \___|     
chimesFF:                                                                     __/ |                        
chimesFF:                                                                    |___/                         
chimesFF: 
chimesFF:                      Copyright (C) 2020 R.K. Lindsey, L.E. Fried, N. Goldman                     
chimesFF: 
chimesFF: 01000011011010001001001010011010100010101010011 0100010101101110110011101101001011011101100101   
chimesFF: 

************************* WARNING (pair_style chimesFF) ************************
Assuming n-body interactions have longer cutoffs than all (n+1)-body interactions
************************* WARNING (pair_style chimesFF) ************************

chimesFF: Reading parameters from file: ../../../1-fit/ChIMES_params.txt
chimesFF: Using respective 2, 3, and 4-body orders of: 12 8 0
chimesFF: Note: Ignoring polynomial domain; assuming [-1,1]
chimesFF: Will consider 5 atom types:
chimesFF: 	0 Al
chimesFF: 	1 C
chimesFF: 	2 H
chimesFF: 	3 N
chimesFF: 	4 O
chimesFF: Will consider 15 atom pair types
chimesFF: Detected version 2 pair specification (no S_DELTA)
chimesFF: 	0 Al Al
chimesFF: 	1 C C
chimesFF: 	2 H H
chimesFF: 	3 N N
chimesFF: 	4 O O
chimesFF: 	5 Al C
chimesFF: 	6 Al H
chimesFF: 	7 Al N
chimesFF: 	8 Al O
chimesFF: 	9 C H
chimesFF: 	10 C N
chimesFF: 	11 C O
chimesFF: 	12 H N
chimesFF: 	13 H O
chimesFF: 	14 N O
chimesFF: Read the following pair type information:
chimesFF: 	Al Al r_cut_in: 2.75200 r_cut_out: 6.00000 MORSE 2.40000
chimesFF: 	C C r_cut_in: 0.95100 r_cut_out: 6.00000 MORSE 1.54000
chimesFF: 	H H r_cut_in: 0.45300 r_cut_out: 6.00000 MORSE 0.74000
chimesFF: 	N N r_cut_in: 0.93700 r_cut_out: 6.00000 MORSE 1.35000
chimesFF: 	O O r_cut_in: 1.14300 r_cut_out: 6.00000 MORSE 1.21000
chimesFF: 	Al C r_cut_in: 2.31000 r_cut_out: 6.00000 MORSE 2.00000
chimesFF: 	Al H r_cut_in: 1.96500 r_cut_out: 6.00000 MORSE 1.60000
chimesFF: 	Al N r_cut_in: 3.49800 r_cut_out: 6.00000 MORSE 1.90000
chimesFF: 	Al O r_cut_in: 1.44800 r_cut_out: 6.00000 MORSE 1.70000
chimesFF: 	C H r_cut_in: 0.69100 r_cut_out: 6.00000 MORSE 1.09000
chimesFF: 	C N r_cut_in: 0.99600 r_cut_out: 6.00000 MORSE 1.48000
chimesFF: 	C O r_cut_in: 0.85300 r_cut_out: 6.00000 MORSE 1.16000
chimesFF: 	H N r_cut_in: 0.67100 r_cut_out: 6.00000 MORSE 1.01000
chimesFF: 	H O r_cut_in: 0.54200 r_cut_out: 6.00000 MORSE 0.97000
chimesFF: 	N O r_cut_in: 1.04200 r_cut_out: 6.00000 MORSE 1.27000
chimesFF: Will use cutoff style TERSOFF
 0.95000
chimesFF: Will use penalty distance: 0.30000
chimesFF: Will use penalty scaling: 100000.00000
chimesFF: Will use single atom energy offsets: 
chimesFF: 	1 Al 0.00000
chimesFF: 	2 C -108.90174
chimesFF: 	3 H 0.00000
chimesFF: 	4 N -167.95251
chimesFF: 	5 O -244.30465
chimesFF: Read 2B parameters for pair: 0 Al Al
chimesFF: 	0 0.00000
chimesFF: 	1 0.00000
chimesFF: 	2 0.00000
chimesFF: 	3 0.00000
chimesFF: 	4 0.00000
chimesFF: 	5 0.00000
chimesFF: 	6 0.00000
chimesFF: 	7 0.00000
chimesFF: 	8 0.00000
chimesFF: 	9 0.00000
chimesFF: 	10 -0.38175
chimesFF: 	11 0.00000
chimesFF: Read 2B parameters for pair: 1 C C
chimesFF: 	0 0.00000
chimesFF: 	1 0.00000
chimesFF: 	2 2.38563
chimesFF: 	3 4.49284
chimesFF: 	4 -2.47542
chimesFF: 	5 -9.49562
chimesFF: 	6 -4.11891
chimesFF: 	7 3.93150
chimesFF: 	8 0.34066
chimesFF: 	9 -0.42333
chimesFF: 	10 -0.61850
chimesFF: 	11 1.32704
chimesFF: Read 2B parameters for pair: 2 H H
chimesFF: 	0 -0.02549
chimesFF: 	1 0.00000
chimesFF: 	2 0.00000
chimesFF: 	3 0.00000
chimesFF: 	4 -0.49675
chimesFF: 	5 0.00000
chimesFF: 	6 0.00000
chimesFF: 	7 -0.16426
chimesFF: 	8 0.00000
chimesFF: 	9 0.06181
chimesFF: 	10 0.41547
chimesFF: 	11 0.10732
chimesFF: Read 2B parameters for pair: 3 N N
chimesFF: 	0 0.00000
chimesFF: 	1 0.00000
chimesFF: 	2 0.00000
chimesFF: 	3 0.00000
chimesFF: 	4 -0.44084
chimesFF: 	5 0.00000
chimesFF: 	6 0.00000
chimesFF: 	7 0.00000
chimesFF: 	8 0.00000
chimesFF: 	9 -0.89874
chimesFF: 	10 0.00000
chimesFF: 	11 1.08805
chimesFF: Read 2B parameters for pair: 4 O O
chimesFF: 	0 0.00000
chimesFF: 	1 -4.64163
chimesFF: 	2 0.00000
chimesFF: 	3 5.63528
chimesFF: 	4 0.00000
chimesFF: 	5 -1.90275
chimesFF: 	6 0.00000
chimesFF: 	7 0.00000
chimesFF: 	8 0.03489
chimesFF: 	9 0.00000
chimesFF: 	10 -0.11975
chimesFF: 	11 0.33367
chimesFF: Read 2B parameters for pair: 5 Al C
chimesFF: 	0 0.00000
chimesFF: 	1 0.00000
chimesFF: 	2 0.00000
chimesFF: 	3 0.00000
chimesFF: 	4 -4.70684
chimesFF: 	5 0.00000
chimesFF: 	6 0.00000
chimesFF: 	7 -0.16952
chimesFF: 	8 0.00000
chimesFF: 	9 0.00000
chimesFF: 	10 -0.71744
chimesFF: 	11 0.46287
chimesFF: Read 2B parameters for pair: 6 Al H
chimesFF: 	0 0.00000
chimesFF: 	1 0.00000
chimesFF: 	2 -0.90225
chimesFF: 	3 -0.05134
chimesFF: 	4 0.00000
chimesFF: 	5 -0.03930
chimesFF: 	6 0.26432
chimesFF: 	7 0.21089
chimesFF: 	8 0.00000
chimesFF: 	9 0.00000
chimesFF: 	10 -0.11159
chimesFF: 	11 0.04203
chimesFF: Read 2B parameters for pair: 7 Al N
chimesFF: 	0 0.00000
chimesFF: 	1 0.00000
chimesFF: 	2 0.00000
chimesFF: 	3 0.00000
chimesFF: 	4 0.00000
chimesFF: 	5 0.00000
chimesFF: 	6 0.00000
chimesFF: 	7 0.00000
chimesFF: 	8 0.00000
chimesFF: 	9 0.00000
chimesFF: 	10 0.18132
chimesFF: 	11 0.00000
chimesFF: Read 2B parameters for pair: 8 Al O
chimesFF: 	0 0.00000
chimesFF: 	1 0.00000
chimesFF: 	2 1.91463
chimesFF: 	3 2.34233
chimesFF: 	4 0.00000
chimesFF: 	5 0.00000
chimesFF: 	6 -1.04294
chimesFF: 	7 0.00000
chimesFF: 	8 0.00000
chimesFF: 	9 0.00000
chimesFF: 	10 -0.09751
chimesFF: 	11 -0.06136
chimesFF: Read 2B parameters for pair: 9 C H
chimesFF: 	0 -1.44300
chimesFF: 	1 0.00000
chimesFF: 	2 3.86700
chimesFF: 	3 -0.21184
chimesFF: 	4 -7.78155
chimesFF: 	5 -4.82936
chimesFF: 	6 0.00000
chimesFF: 	7 1.15294
chimesFF: 	8 -0.63747
chimesFF: 	9 -0.13160
chimesFF: 	10 1.03466
chimesFF: 	11 0.59022
chimesFF: Read 2B parameters for pair: 10 C N
chimesFF: 	0 0.00000
chimesFF: 	1 0.17810
chimesFF: 	2 -12.65766
chimesFF: 	3 3.39668
chimesFF: 	4 3.84329
chimesFF: 	5 -3.32581
chimesFF: 	6 -6.61872
chimesFF: 	7 0.00000
chimesFF: 	8 -1.72245
chimesFF: 	9 -0.48552
chimesFF: 	10 -1.78790
chimesFF: 	11 0.00000
chimesFF: Read 2B parameters for pair: 11 C O
chimesFF: 	0 -4.32084
chimesFF: 	1 0.00000
chimesFF: 	2 9.64648
chimesFF: 	3 0.00000
chimesFF: 	4 -16.44186
chimesFF: 	5 -14.70186
chimesFF: 	6 -2.84244
chimesFF: 	7 -1.47255
chimesFF: 	8 -2.51158
chimesFF: 	9 -0.31105
chimesFF: 	10 0.86443
chimesFF: 	11 -0.24018
chimesFF: Read 2B parameters for pair: 12 H N
chimesFF: 	0 0.95416
chimesFF: 	1 0.00000
chimesFF: 	2 0.00000
chimesFF: 	3 -1.58805
chimesFF: 	4 -4.18107
chimesFF: 	5 -2.28325
chimesFF: 	6 0.00000
chimesFF: 	7 0.25305
chimesFF: 	8 0.00000
chimesFF: 	9 0.00000
chimesFF: 	10 0.61442
chimesFF: 	11 0.27682
chimesFF: Read 2B parameters for pair: 13 H O
chimesFF: 	0 6.77731
chimesFF: 	1 15.04400
chimesFF: 	2 0.00000
chimesFF: 	3 -21.57492
chimesFF: 	4 -27.33832
chimesFF: 	5 -14.04126
chimesFF: 	6 -4.53354
chimesFF: 	7 -0.96527
chimesFF: 	8 0.00000
chimesFF: 	9 1.63006
chimesFF: 	10 0.80204
chimesFF: 	11 0.50314
chimesFF: Read 2B parameters for pair: 14 N O
chimesFF: 	0 0.00000
chimesFF: 	1 -2.60604
chimesFF: 	2 0.00000
chimesFF: 	3 1.76741
chimesFF: 	4 0.00000
chimesFF: 	5 -1.48092
chimesFF: 	6 0.00000
chimesFF: 	7 0.00000
chimesFF: 	8 -1.64404
chimesFF: 	9 0.00000
chimesFF: 	10 0.45171
chimesFF: 	11 0.34385
chimesFF: Built the following 2-body pair "slow" map:
chimesFF: 	0 AlAl(i: 0)
chimesFF: 	5 AlC(i: 1)
chimesFF: 	6 AlH(i: 2)
chimesFF: 	7 AlN(i: 3)
chimesFF: 	8 AlO(i: 4)
chimesFF: 	5 CAl(i: 5)
chimesFF: 	1 CC(i: 6)
chimesFF: 	9 CH(i: 7)
chimesFF: 	10 CN(i: 8)
chimesFF: 	11 CO(i: 9)
chimesFF: 	6 HAl(i: 10)
chimesFF: 	9 HC(i: 11)
chimesFF: 	2 HH(i: 12)
chimesFF: 	12 HN(i: 13)
chimesFF: 	13 HO(i: 14)
chimesFF: 	7 NAl(i: 15)
chimesFF: 	10 NC(i: 16)
chimesFF: 	12 NH(i: 17)
chimesFF: 	3 NN(i: 18)
chimesFF: 	14 NO(i: 19)
chimesFF: 	8 OAl(i: 20)
chimesFF: 	11 OC(i: 21)
chimesFF: 	13 OH(i: 22)
chimesFF: 	14 ON(i: 23)
chimesFF: 	4 OO(i: 24)
chimesFF: Built the following 2-body pair "fast" map:
chimesFF: 	AlAl: 0 0
chimesFF: 	AlC: 1 5
chimesFF: 	AlH: 2 6
chimesFF: 	AlN: 3 7
chimesFF: 	AlO: 4 8
chimesFF: 	CAl: 5 5
chimesFF: 	CC: 6 1
chimesFF: 	CH: 7 9
chimesFF: 	CN: 8 10
chimesFF: 	CO: 9 11
chimesFF: 	HAl: 10 6
chimesFF: 	HC: 11 9
chimesFF: 	HH: 12 2
chimesFF: 	HN: 13 12
chimesFF: 	HO: 14 13
chimesFF: 	NAl: 15 7
chimesFF: 	NC: 16 10
chimesFF: 	NH: 17 12
chimesFF: 	NN: 18 3
chimesFF: 	NO: 19 14
chimesFF: 	OAl: 20 8
chimesFF: 	OC: 21 11
chimesFF: 	OH: 22 13
chimesFF: 	ON: 23 14
chimesFF: 	OO: 24 4
chimesFF: Read 3B parameters for triplet: 0 Al Al Al
chimesFF: Read 3B parameters for triplet: 1 Al Al C
chimesFF: Read 3B parameters for triplet: 2 Al Al H
chimesFF: 	0 4 7 -1.92694
chimesFF: 	0 7 4 -1.92694
chimesFF: 	5 3 6 0.78926
chimesFF: 	5 6 3 0.78926
chimesFF: 	7 0 4 -0.04510
chimesFF: 	7 4 0 -0.04510
chimesFF: 	7 3 4 0.15260
chimesFF: 	7 4 3 0.15260
chimesFF: 	7 3 6 -0.41131
chimesFF: 	7 6 3 -0.41131
chimesFF: Read 3B parameters for triplet: 3 Al Al N
chimesFF: Read 3B parameters for triplet: 4 Al Al O
chimesFF: 	0 3 4 -4.48919
chimesFF: 	0 4 3 -4.48919
chimesFF: 	0 3 7 1.12258
chimesFF: 	0 7 3 1.12258
chimesFF: 	0 4 5 1.22906
chimesFF: 	0 5 4 1.22906
chimesFF: 	2 3 4 0.04504
chimesFF: 	2 4 3 0.04504
chimesFF: 	2 5 7 1.51396
chimesFF: 	2 7 5 1.51396
chimesFF: 	4 5 7 -0.79415
chimesFF: 	4 7 5 -0.79415
chimesFF: 	6 0 6 -0.43793
chimesFF: 	6 6 0 -0.43793
chimesFF: 	6 3 7 -0.50801
chimesFF: 	6 7 3 -0.50801
chimesFF: 	7 4 7 0.19867
chimesFF: 	7 7 4 0.19867
chimesFF: Read 3B parameters for triplet: 5 Al C C
chimesFF: 	0 6 7 -1.28548
chimesFF: 	6 0 7 -1.28548
chimesFF: Read 3B parameters for triplet: 6 Al C H
chimesFF: 	3 0 3 -1.82798
chimesFF: 	3 2 0 9.60983
chimesFF: 	6 0 3 1.72628
chimesFF: 	6 0 4 -0.60475
chimesFF: 	6 4 7 -0.63814
chimesFF: 	6 7 0 1.37502
chimesFF: Read 3B parameters for triplet: 7 Al C N
chimesFF: Read 3B parameters for triplet: 8 Al C O
chimesFF: 	0 1 6 2.35960
chimesFF: 	0 3 5 1.91511
chimesFF: 	0 3 6 -0.66477
chimesFF: 	0 3 7 -2.63363
chimesFF: 	0 5 3 1.86514
chimesFF: 	0 6 4 -1.93231
chimesFF: 	0 7 4 -1.25729
chimesFF: 	1 0 4 -5.80619
chimesFF: 	3 0 4 1.98588
chimesFF: 	3 0 7 -1.82184
chimesFF: 	3 5 6 2.72352
chimesFF: 	3 6 6 0.59329
chimesFF: 	3 7 5 0.24053
chimesFF: 	3 7 7 -0.44323
chimesFF: 	4 0 7 0.04693
chimesFF: 	4 6 6 1.93229
chimesFF: 	4 6 7 2.92216
chimesFF: 	4 7 0 0.77107
chimesFF: 	5 0 6 1.59721
chimesFF: 	5 6 3 0.79240
chimesFF: 	5 7 4 -0.99613
chimesFF: 	6 0 4 2.12321
chimesFF: 	6 0 7 -0.07796
chimesFF: 	6 3 6 -0.79362
chimesFF: 	6 3 7 -0.35958
chimesFF: 	6 5 0 0.06238
chimesFF: 	6 6 0 -2.72874
chimesFF: 	6 6 1 -0.56129
chimesFF: 	6 6 3 0.23060
chimesFF: 	6 7 4 -0.91332
chimesFF: 	6 7 5 -1.01566
chimesFF: 	6 7 7 0.48476
chimesFF: 	7 0 4 0.49703
chimesFF: 	7 3 4 -0.50012
chimesFF: 	7 4 0 0.55109
chimesFF: 	7 4 7 -1.62852
chimesFF: 	7 5 0 0.29011
chimesFF: 	7 5 3 -1.53537
chimesFF: 	7 6 5 1.05094
chimesFF: 	7 7 1 -0.42177
chimesFF: 	7 7 3 0.49814
chimesFF: 	7 7 6 -0.07833
chimesFF: Read 3B parameters for triplet: 9 Al H H
chimesFF: 	0 7 1 -0.78357
chimesFF: 	7 0 1 -0.78357
chimesFF: 	2 3 0 0.80943
chimesFF: 	3 2 0 0.80943
chimesFF: 	2 6 0 -0.34758
chimesFF: 	6 2 0 -0.34758
chimesFF: 	3 7 0 0.39341
chimesFF: 	7 3 0 0.39341
chimesFF: 	4 6 4 -0.95795
chimesFF: 	6 4 4 -0.95795
chimesFF: 	5 7 0 -0.34897
chimesFF: 	7 5 0 -0.34897
chimesFF: 	6 7 1 -0.61140
chimesFF: 	7 6 1 -0.61140
chimesFF: Read 3B parameters for triplet: 10 Al H N
chimesFF: Read 3B parameters for triplet: 11 Al H O
chimesFF: 	0 2 4 0.47698
chimesFF: 	0 3 4 1.32157
chimesFF: 	0 3 7 0.07544
chimesFF: 	0 4 5 -1.13204
chimesFF: 	0 5 2 1.83900
chimesFF: 	0 6 4 0.20026
chimesFF: 	0 6 6 -0.32157
chimesFF: 	0 7 3 0.10886
chimesFF: 	0 7 6 0.31753
chimesFF: 	0 7 7 0.02843
chimesFF: 	2 0 7 0.11316
chimesFF: 	2 3 0 -0.89018
chimesFF: 	2 6 7 -0.35843
chimesFF: 	3 0 3 -0.66027
chimesFF: 	3 0 7 0.76773
chimesFF: 	3 5 5 0.78131
chimesFF: 	3 5 7 1.56706
chimesFF: 	3 6 2 -3.58793
chimesFF: 	3 6 3 -0.31869
chimesFF: 	3 7 3 -0.54564
chimesFF: 	3 7 7 -0.06035
chimesFF: 	4 0 6 0.51836
chimesFF: 	4 6 7 0.36889
chimesFF: 	4 7 3 -0.66412
chimesFF: 	5 0 3 0.04991
chimesFF: 	5 0 5 -0.65684
chimesFF: 	5 3 0 0.24729
chimesFF: 	5 3 4 0.55687
chimesFF: 	5 4 4 0.90141
chimesFF: 	5 5 5 -0.84171
chimesFF: 	6 0 3 0.01133
chimesFF: 	6 0 6 -0.29747
chimesFF: 	6 3 3 -0.46814
chimesFF: 	6 3 5 0.95941
chimesFF: 	6 4 0 0.20737
chimesFF: 	6 5 6 -0.55453
chimesFF: 	6 5 7 -0.45236
chimesFF: 	6 6 0 -0.13342
chimesFF: 	6 7 1 -0.07523
chimesFF: 	6 7 3 0.23864
chimesFF: 	6 7 7 0.23424
chimesFF: 	7 0 6 -0.12025
chimesFF: 	7 3 4 -0.07182
chimesFF: 	7 3 6 0.29878
chimesFF: 	7 4 0 0.69466
chimesFF: 	7 4 4 -0.36763
chimesFF: 	7 5 3 -1.14889
chimesFF: 	7 5 6 -0.35257
chimesFF: 	7 6 7 -0.64173
chimesFF: 	7 7 3 0.30886
chimesFF: 	7 7 4 0.03914
chimesFF: 	7 7 6 0.16483
chimesFF: 	7 7 7 0.36009
chimesFF: Read 3B parameters for triplet: 12 Al N N
chimesFF: Read 3B parameters for triplet: 13 Al N O
chimesFF: Read 3B parameters for triplet: 14 Al O O
chimesFF: 	0 1 3 -2.46398
chimesFF: 	1 0 3 -2.46398
chimesFF: 	0 2 6 0.82282
chimesFF: 	2 0 6 0.82282
chimesFF: 	0 3 4 -2.68125
chimesFF: 	3 0 4 -2.68125
chimesFF: 	0 4 3 3.49758
chimesFF: 	4 0 3 3.49758
chimesFF: 	0 4 6 1.18922
chimesFF: 	4 0 6 1.18922
chimesFF: 	0 4 7 -0.37656
chimesFF: 	4 0 7 -0.37656
chimesFF: 	0 5 3 0.04466
chimesFF: 	5 0 3 0.04466
chimesFF: 	0 7 2 0.20063
chimesFF: 	7 0 2 0.20063
chimesFF: 	0 7 4 -0.60989
chimesFF: 	7 0 4 -0.60989
chimesFF: 	0 7 6 0.73021
chimesFF: 	7 0 6 0.73021
chimesFF: 	1 3 5 0.56939
chimesFF: 	3 1 5 0.56939
chimesFF: 	1 5 0 -2.79067
chimesFF: 	5 1 0 -2.79067
chimesFF: 	2 3 0 -3.24812
chimesFF: 	3 2 0 -3.24812
chimesFF: 	3 4 2 -1.62080
chimesFF: 	4 3 2 -1.62080
chimesFF: 	3 5 6 -0.33244
chimesFF: 	5 3 6 -0.33244
chimesFF: 	3 5 7 -0.20708
chimesFF: 	5 3 7 -0.20708
chimesFF: 	3 6 7 0.43552
chimesFF: 	6 3 7 0.43552
chimesFF: 	3 7 4 -0.37039
chimesFF: 	7 3 4 -0.37039
chimesFF: 	4 5 2 1.76197
chimesFF: 	5 4 2 1.76197
chimesFF: 	4 5 4 -0.32448
chimesFF: 	5 4 4 -0.32448
chimesFF: 	4 7 3 0.06593
chimesFF: 	7 4 3 0.06593
chimesFF: 	5 5 6 0.45267
chimesFF: 	5 6 2 -0.22958
chimesFF: 	6 5 2 -0.22958
chimesFF: 	5 7 7 -0.08973
chimesFF: 	7 5 7 -0.08973
chimesFF: 	6 7 4 -0.25742
chimesFF: 	7 6 4 -0.25742
chimesFF: Read 3B parameters for triplet: 15 C C C
chimesFF: 	0 2 2 0.15590
chimesFF: 	2 0 2 0.15590
chimesFF: 	2 2 0 0.15590
chimesFF: 	0 2 4 -7.75021
chimesFF: 	2 0 4 -7.75021
chimesFF: 	0 4 2 -7.75021
chimesFF: 	4 0 2 -7.75021
chimesFF: 	2 4 0 -7.75021
chimesFF: 	4 2 0 -7.75021
chimesFF: 	0 2 7 1.77607
chimesFF: 	2 0 7 1.77607
chimesFF: 	0 7 2 1.77607
chimesFF: 	7 0 2 1.77607
chimesFF: 	2 7 0 1.77607
chimesFF: 	7 2 0 1.77607
chimesFF: 	0 3 3 0.96497
chimesFF: 	3 0 3 0.96497
chimesFF: 	3 3 0 0.96497
chimesFF: 	0 3 5 -0.57287
chimesFF: 	3 0 5 -0.57287
chimesFF: 	0 5 3 -0.57287
chimesFF: 	5 0 3 -0.57287
chimesFF: 	3 5 0 -0.57287
chimesFF: 	5 3 0 -0.57287
chimesFF: 	0 5 6 0.20665
chimesFF: 	5 0 6 0.20665
chimesFF: 	0 6 5 0.20665
chimesFF: 	6 0 5 0.20665
chimesFF: 	5 6 0 0.20665
chimesFF: 	6 5 0 0.20665
chimesFF: 	0 7 7 -0.61537
chimesFF: 	7 0 7 -0.61537
chimesFF: 	7 7 0 -0.61537
chimesFF: 	1 3 5 -4.45303
chimesFF: 	3 1 5 -4.45303
chimesFF: 	1 5 3 -4.45303
chimesFF: 	5 1 3 -4.45303
chimesFF: 	3 5 1 -4.45303
chimesFF: 	5 3 1 -4.45303
chimesFF: 	1 7 7 -0.25020
chimesFF: 	7 1 7 -0.25020
chimesFF: 	7 7 1 -0.25020
chimesFF: 	2 3 4 -3.49013
chimesFF: 	3 2 4 -3.49013
chimesFF: 	2 4 3 -3.49013
chimesFF: 	4 2 3 -3.49013
chimesFF: 	3 4 2 -3.49013
chimesFF: 	4 3 2 -3.49013
chimesFF: 	2 3 5 4.16681
chimesFF: 	3 2 5 4.16681
chimesFF: 	2 5 3 4.16681
chimesFF: 	5 2 3 4.16681
chimesFF: 	3 5 2 4.16681
chimesFF: 	5 3 2 4.16681
chimesFF: 	2 4 6 -0.14605
chimesFF: 	4 2 6 -0.14605
chimesFF: 	2 6 4 -0.14605
chimesFF: 	6 2 4 -0.14605
chimesFF: 	4 6 2 -0.14605
chimesFF: 	6 4 2 -0.14605
chimesFF: 	2 5 7 -1.21670
chimesFF: 	5 2 7 -1.21670
chimesFF: 	2 7 5 -1.21670
chimesFF: 	7 2 5 -1.21670
chimesFF: 	5 7 2 -1.21670
chimesFF: 	7 5 2 -1.21670
chimesFF: 	3 3 5 2.75312
chimesFF: 	3 5 3 2.75312
chimesFF: 	5 3 3 2.75312
chimesFF: 	3 4 6 0.20413
chimesFF: 	4 3 6 0.20413
chimesFF: 	3 6 4 0.20413
chimesFF: 	6 3 4 0.20413
chimesFF: 	4 6 3 0.20413
chimesFF: 	6 4 3 0.20413
chimesFF: 	3 7 7 2.71621
chimesFF: 	7 3 7 2.71621
chimesFF: 	7 7 3 2.71621
chimesFF: 	4 4 7 2.18564
chimesFF: 	4 7 4 2.18564
chimesFF: 	7 4 4 2.18564
chimesFF: 	4 5 6 -1.46270
chimesFF: 	5 4 6 -1.46270
chimesFF: 	4 6 5 -1.46270
chimesFF: 	6 4 5 -1.46270
chimesFF: 	5 6 4 -1.46270
chimesFF: 	6 5 4 -1.46270
chimesFF: 	4 5 7 0.42655
chimesFF: 	5 4 7 0.42655
chimesFF: 	4 7 5 0.42655
chimesFF: 	7 4 5 0.42655
chimesFF: 	5 7 4 0.42655
chimesFF: 	7 5 4 0.42655
chimesFF: 	4 6 7 -0.30756
chimesFF: 	6 4 7 -0.30756
chimesFF: 	4 7 6 -0.30756
chimesFF: 	7 4 6 -0.30756
chimesFF: 	6 7 4 -0.30756
chimesFF: 	7 6 4 -0.30756
chimesFF: 	5 5 6 -1.46739
chimesFF: 	5 6 5 -1.46739
chimesFF: 	6 5 5 -1.46739
chimesFF: 	5 6 7 0.59656
chimesFF: 	6 5 7 0.59656
chimesFF: 	5 7 6 0.59656
chimesFF: 	7 5 6 0.59656
chimesFF: 	6 7 5 0.59656
chimesFF: 	7 6 5 0.59656
chimesFF: 	7 7 7 1.68348
chimesFF: Read 3B parameters for triplet: 16 C C H
chimesFF: 	0 2 4 -1.28121
chimesFF: 	0 4 2 -1.28121
chimesFF: 	0 2 5 0.77649
chimesFF: 	0 5 2 0.77649
chimesFF: 	0 3 4 -0.46258
chimesFF: 	0 4 3 -0.46258
chimesFF: 	0 3 7 -2.20335
chimesFF: 	0 7 3 -2.20335
chimesFF: 	0 4 4 1.81835
chimesFF: 	0 4 6 0.63432
chimesFF: 	0 6 4 0.63432
chimesFF: 	0 5 7 0.01418
chimesFF: 	0 7 5 0.01418
chimesFF: 	0 6 6 -1.69365
chimesFF: 	2 0 5 2.01581
chimesFF: 	2 5 0 2.01581
chimesFF: 	2 0 6 1.49406
chimesFF: 	2 6 0 1.49406
chimesFF: 	2 0 7 -0.65559
chimesFF: 	2 7 0 -0.65559
chimesFF: 	2 4 6 -0.48868
chimesFF: 	2 6 4 -0.48868
chimesFF: 	3 0 4 -3.89500
chimesFF: 	3 4 0 -3.89500
chimesFF: 	3 0 5 0.02159
chimesFF: 	3 5 0 0.02159
chimesFF: 	3 2 7 2.73431
chimesFF: 	3 7 2 2.73431
chimesFF: 	3 3 4 0.46505
chimesFF: 	3 4 3 0.46505
chimesFF: 	3 3 7 2.28225
chimesFF: 	3 7 3 2.28225
chimesFF: 	3 5 7 -3.12679
chimesFF: 	3 7 5 -3.12679
chimesFF: 	3 6 6 1.61035
chimesFF: 	4 1 6 0.04048
chimesFF: 	4 6 1 0.04048
chimesFF: 	4 5 6 -0.40253
chimesFF: 	4 6 5 -0.40253
chimesFF: 	4 6 6 0.57352
chimesFF: 	4 6 7 0.32694
chimesFF: 	4 7 6 0.32694
chimesFF: 	5 1 5 -1.33215
chimesFF: 	5 5 1 -1.33215
chimesFF: 	5 3 4 -1.55631
chimesFF: 	5 4 3 -1.55631
chimesFF: 	5 3 5 1.95496
chimesFF: 	5 5 3 1.95496
chimesFF: 	6 0 1 0.38000
chimesFF: 	6 1 0 0.38000
chimesFF: 	6 0 3 -0.22892
chimesFF: 	6 3 0 -0.22892
chimesFF: 	6 0 4 0.73496
chimesFF: 	6 4 0 0.73496
chimesFF: 	6 0 7 0.19705
chimesFF: 	6 7 0 0.19705
chimesFF: 	6 2 4 -1.21243
chimesFF: 	6 4 2 -1.21243
chimesFF: 	6 5 7 0.21821
chimesFF: 	6 7 5 0.21821
chimesFF: 	6 6 6 -0.02047
chimesFF: 	7 0 2 -0.06482
chimesFF: 	7 2 0 -0.06482
chimesFF: 	7 0 4 -0.98454
chimesFF: 	7 4 0 -0.98454
chimesFF: 	7 0 5 1.67770
chimesFF: 	7 5 0 1.67770
chimesFF: 	7 1 3 0.41517
chimesFF: 	7 3 1 0.41517
chimesFF: 	7 1 5 1.50465
chimesFF: 	7 5 1 1.50465
chimesFF: 	7 1 6 -0.02460
chimesFF: 	7 6 1 -0.02460
chimesFF: 	7 2 6 0.12944
chimesFF: 	7 6 2 0.12944
chimesFF: 	7 3 5 -1.95027
chimesFF: 	7 5 3 -1.95027
chimesFF: 	7 3 7 0.59871
chimesFF: 	7 7 3 0.59871
chimesFF: 	7 4 5 -0.53547
chimesFF: 	7 5 4 -0.53547
chimesFF: 	7 5 7 -1.09900
chimesFF: 	7 7 5 -1.09900
chimesFF: Read 3B parameters for triplet: 17 C C N
chimesFF: 	0 3 5 -5.06001
chimesFF: 	0 5 3 -5.06001
chimesFF: 	0 4 6 0.61449
chimesFF: 	0 6 4 0.61449
chimesFF: 	0 5 7 0.79972
chimesFF: 	0 7 5 0.79972
chimesFF: 	0 6 7 0.09852
chimesFF: 	0 7 6 0.09852
chimesFF: 	2 0 4 -9.97961
chimesFF: 	2 4 0 -9.97961
chimesFF: 	2 0 6 2.00337
chimesFF: 	2 6 0 2.00337
chimesFF: 	2 4 5 3.17806
chimesFF: 	2 5 4 3.17806
chimesFF: 	2 4 6 -1.25576
chimesFF: 	2 6 4 -1.25576
chimesFF: 	3 0 2 -2.34360
chimesFF: 	3 2 0 -2.34360
chimesFF: 	3 0 3 1.56749
chimesFF: 	3 3 0 1.56749
chimesFF: 	3 0 5 -1.69571
chimesFF: 	3 5 0 -1.69571
chimesFF: 	3 5 7 -0.79103
chimesFF: 	3 7 5 -0.79103
chimesFF: 	3 6 6 0.08167
chimesFF: 	3 6 7 -1.43683
chimesFF: 	3 7 6 -1.43683
chimesFF: 	3 7 7 2.41413
chimesFF: 	4 0 7 0.15839
chimesFF: 	4 7 0 0.15839
chimesFF: 	4 6 7 0.52853
chimesFF: 	4 7 6 0.52853
chimesFF: 	5 0 3 -1.04176
chimesFF: 	5 3 0 -1.04176
chimesFF: 	5 3 6 1.47856
chimesFF: 	5 6 3 1.47856
chimesFF: 	5 3 7 1.02134
chimesFF: 	5 7 3 1.02134
chimesFF: 	5 4 7 0.39673
chimesFF: 	5 7 4 0.39673
chimesFF: 	5 6 7 1.28076
chimesFF: 	5 7 6 1.28076
chimesFF: 	6 0 2 0.59634
chimesFF: 	6 2 0 0.59634
chimesFF: 	6 0 3 -0.59687
chimesFF: 	6 3 0 -0.59687
chimesFF: 	6 0 5 1.02751
chimesFF: 	6 5 0 1.02751
chimesFF: 	6 0 6 -0.46031
chimesFF: 	6 6 0 -0.46031
chimesFF: 	6 6 6 -1.94794
chimesFF: 	7 0 2 0.20517
chimesFF: 	7 2 0 0.20517
chimesFF: 	7 0 4 -0.43289
chimesFF: 	7 4 0 -0.43289
chimesFF: 	7 0 7 -0.87562
chimesFF: 	7 7 0 -0.87562
chimesFF: 	7 1 7 -0.48749
chimesFF: 	7 7 1 -0.48749
chimesFF: 	7 3 5 -0.39058
chimesFF: 	7 5 3 -0.39058
chimesFF: 	7 3 6 -2.08490
chimesFF: 	7 6 3 -2.08490
chimesFF: 	7 3 7 3.23958
chimesFF: 	7 7 3 3.23958
chimesFF: 	7 4 5 0.93438
chimesFF: 	7 5 4 0.93438
chimesFF: 	7 4 6 -1.08968
chimesFF: 	7 6 4 -1.08968
chimesFF: Read 3B parameters for triplet: 18 C C O
chimesFF: 	0 2 3 14.16043
chimesFF: 	0 3 2 14.16043
chimesFF: 	0 3 5 -0.29802
chimesFF: 	0 5 3 -0.29802
chimesFF: 	0 3 7 -0.58383
chimesFF: 	0 7 3 -0.58383
chimesFF: 	0 4 5 -0.43315
chimesFF: 	0 5 4 -0.43315
chimesFF: 	0 6 6 -3.30413
chimesFF: 	0 6 7 -2.53504
chimesFF: 	0 7 6 -2.53504
chimesFF: 	2 0 2 9.52954
chimesFF: 	2 2 0 9.52954
chimesFF: 	2 0 7 -3.48444
chimesFF: 	2 7 0 -3.48444
chimesFF: 	2 3 7 0.84466
chimesFF: 	2 7 3 0.84466
chimesFF: 	3 0 4 -10.21841
chimesFF: 	3 4 0 -10.21841
chimesFF: 	3 0 7 -1.41030
chimesFF: 	3 7 0 -1.41030
chimesFF: 	3 1 4 -6.65119
chimesFF: 	3 4 1 -6.65119
chimesFF: 	3 2 3 -6.82244
chimesFF: 	3 3 2 -6.82244
chimesFF: 	3 2 4 1.97217
chimesFF: 	3 4 2 1.97217
chimesFF: 	3 2 6 -4.88189
chimesFF: 	3 6 2 -4.88189
chimesFF: 	3 3 6 -6.70382
chimesFF: 	3 6 3 -6.70382
chimesFF: 	3 6 6 2.24339
chimesFF: 	3 6 7 0.45485
chimesFF: 	3 7 6 0.45485
chimesFF: 	3 7 7 -1.13361
chimesFF: 	4 0 5 -1.59910
chimesFF: 	4 5 0 -1.59910
chimesFF: 	4 1 3 -5.83651
chimesFF: 	4 3 1 -5.83651
chimesFF: 	4 1 6 1.73086
chimesFF: 	4 6 1 1.73086
chimesFF: 	4 2 4 2.99055
chimesFF: 	4 4 2 2.99055
chimesFF: 	4 3 4 1.39479
chimesFF: 	4 4 3 1.39479
chimesFF: 	4 3 5 1.11868
chimesFF: 	4 5 3 1.11868
chimesFF: 	4 3 6 -1.90295
chimesFF: 	4 6 3 -1.90295
chimesFF: 	4 5 5 -1.17156
chimesFF: 	4 5 7 0.66741
chimesFF: 	4 7 5 0.66741
chimesFF: 	4 6 6 0.74570
chimesFF: 	4 7 7 1.82545
chimesFF: 	5 1 4 2.48374
chimesFF: 	5 4 1 2.48374
chimesFF: 	5 4 7 -0.09024
chimesFF: 	5 7 4 -0.09024
chimesFF: 	5 5 6 0.71970
chimesFF: 	5 6 5 0.71970
chimesFF: 	5 5 7 0.59552
chimesFF: 	5 7 5 0.59552
chimesFF: 	5 6 7 -0.37700
chimesFF: 	5 7 6 -0.37700
chimesFF: 	6 0 4 2.27573
chimesFF: 	6 4 0 2.27573
chimesFF: 	6 0 5 2.38137
chimesFF: 	6 5 0 2.38137
chimesFF: 	6 0 7 -0.45412
chimesFF: 	6 7 0 -0.45412
chimesFF: 	6 1 7 0.40730
chimesFF: 	6 7 1 0.40730
chimesFF: 	6 2 5 -1.00425
chimesFF: 	6 5 2 -1.00425
chimesFF: 	6 3 4 -2.55396
chimesFF: 	6 4 3 -2.55396
chimesFF: 	6 4 5 0.51411
chimesFF: 	6 5 4 0.51411
chimesFF: 	6 4 6 1.56836
chimesFF: 	6 6 4 1.56836
chimesFF: 	6 5 5 1.86348
chimesFF: 	6 5 6 0.65540
chimesFF: 	6 6 5 0.65540
chimesFF: 	6 5 7 -0.33346
chimesFF: 	6 7 5 -0.33346
chimesFF: 	6 7 7 -0.66030
chimesFF: 	7 0 2 2.02420
chimesFF: 	7 2 0 2.02420
chimesFF: 	7 0 4 -1.68735
chimesFF: 	7 4 0 -1.68735
chimesFF: 	7 0 6 -1.36884
chimesFF: 	7 6 0 -1.36884
chimesFF: 	7 0 7 -0.67834
chimesFF: 	7 7 0 -0.67834
chimesFF: 	7 1 3 0.07576
chimesFF: 	7 3 1 0.07576
chimesFF: 	7 2 3 -7.36638
chimesFF: 	7 3 2 -7.36638
chimesFF: 	7 2 4 2.30573
chimesFF: 	7 4 2 2.30573
chimesFF: 	7 2 6 1.56769
chimesFF: 	7 6 2 1.56769
chimesFF: 	7 3 6 1.76842
chimesFF: 	7 6 3 1.76842
chimesFF: 	7 4 6 -0.43220
chimesFF: 	7 6 4 -0.43220
chimesFF: 	7 5 6 -0.13323
chimesFF: 	7 6 5 -0.13323
chimesFF: 	7 5 7 -0.28426
chimesFF: 	7 7 5 -0.28426
chimesFF: 	7 7 7 0.07174
chimesFF: Read 3B parameters for triplet: 19 C H H
chimesFF: 	0 1 1 2.55661
chimesFF: 	1 0 1 2.55661
chimesFF: 	0 1 7 -0.04451
chimesFF: 	1 0 7 -0.04451
chimesFF: 	0 2 5 1.76921
chimesFF: 	2 0 5 1.76921
chimesFF: 	0 3 5 2.43774
chimesFF: 	3 0 5 2.43774
chimesFF: 	0 4 1 -0.30435
chimesFF: 	4 0 1 -0.30435
chimesFF: 	0 4 5 1.21620
chimesFF: 	4 0 5 1.21620
chimesFF: 	0 4 7 -0.46087
chimesFF: 	4 0 7 -0.46087
chimesFF: 	0 5 5 -0.28355
chimesFF: 	5 0 5 -0.28355
chimesFF: 	0 6 4 0.70790
chimesFF: 	6 0 4 0.70790
chimesFF: 	0 7 1 0.25344
chimesFF: 	7 0 1 0.25344
chimesFF: 	0 7 4 0.45590
chimesFF: 	7 0 4 0.45590
chimesFF: 	1 3 6 -2.31786
chimesFF: 	3 1 6 -2.31786
chimesFF: 	1 4 2 -0.15130
chimesFF: 	4 1 2 -0.15130
chimesFF: 	1 6 0 -0.29051
chimesFF: 	6 1 0 -0.29051
chimesFF: 	1 6 5 -0.31838
chimesFF: 	6 1 5 -0.31838
chimesFF: 	2 3 6 0.99098
chimesFF: 	3 2 6 0.99098
chimesFF: 	2 4 3 -0.07965
chimesFF: 	4 2 3 -0.07965
chimesFF: 	2 7 4 -1.05604
chimesFF: 	7 2 4 -1.05604
chimesFF: 	3 4 0 0.65295
chimesFF: 	4 3 0 0.65295
chimesFF: 	3 4 6 -0.11744
chimesFF: 	4 3 6 -0.11744
chimesFF: 	3 4 7 0.21431
chimesFF: 	4 3 7 0.21431
chimesFF: 	3 5 3 -0.68460
chimesFF: 	5 3 3 -0.68460
chimesFF: 	3 5 6 -0.38221
chimesFF: 	5 3 6 -0.38221
chimesFF: 	3 6 5 0.49623
chimesFF: 	6 3 5 0.49623
chimesFF: 	3 7 0 0.48682
chimesFF: 	7 3 0 0.48682
chimesFF: 	3 7 4 -1.87798
chimesFF: 	7 3 4 -1.87798
chimesFF: 	3 7 7 -0.54863
chimesFF: 	7 3 7 -0.54863
chimesFF: 	4 6 0 0.20858
chimesFF: 	6 4 0 0.20858
chimesFF: 	5 7 7 0.01124
chimesFF: 	7 5 7 0.01124
chimesFF: 	6 7 3 -0.36859
chimesFF: 	7 6 3 -0.36859
chimesFF: 	6 7 7 0.08211
chimesFF: 	7 6 7 0.08211
chimesFF: 	7 7 7 -0.53543
chimesFF: Read 3B parameters for triplet: 20 C H N
chimesFF: 	0 2 2 -2.99809
chimesFF: 	0 2 3 -2.92831
chimesFF: 	0 2 4 1.18764
chimesFF: 	0 4 1 -0.79095
chimesFF: 	0 5 1 -0.34688
chimesFF: 	0 5 3 1.86501
chimesFF: 	0 6 1 2.12092
chimesFF: 	0 6 3 -4.80946
chimesFF: 	0 6 5 0.47711
chimesFF: 	0 6 6 -0.10524
chimesFF: 	0 7 7 0.25497
chimesFF: 	1 0 2 -4.58791
chimesFF: 	1 6 5 -1.27219
chimesFF: 	1 7 0 -1.32907
chimesFF: 	1 7 6 -0.27237
chimesFF: 	3 0 6 -0.63196
chimesFF: 	3 5 0 0.93976
chimesFF: 	3 7 2 -0.24507
chimesFF: 	4 0 5 0.00819
chimesFF: 	4 2 5 -1.35531
chimesFF: 	4 5 3 -0.27386
chimesFF: 	4 6 4 0.87646
chimesFF: 	4 6 7 -0.98576
chimesFF: 	4 7 0 -0.90410
chimesFF: 	4 7 6 -0.22839
chimesFF: 	4 7 7 -0.98080
chimesFF: 	5 2 0 0.70324
chimesFF: 	5 3 3 6.45889
chimesFF: 	5 3 5 -1.59145
chimesFF: 	5 3 6 -0.25990
chimesFF: 	5 4 0 -1.17748
chimesFF: 	5 4 2 2.52501
chimesFF: 	5 4 3 1.99138
chimesFF: 	5 6 1 2.50206
chimesFF: 	5 6 4 -1.12208
chimesFF: 	5 6 7 0.39630
chimesFF: 	5 7 1 1.16857
chimesFF: 	5 7 6 0.61950
chimesFF: 	6 0 5 -0.65318
chimesFF: 	6 1 5 -0.67485
chimesFF: 	6 3 3 -1.81232
chimesFF: 	6 3 5 1.14753
chimesFF: 	6 4 7 -0.40839
chimesFF: 	6 5 7 -0.23298
chimesFF: 	6 6 0 -5.91470
chimesFF: 	6 6 1 -2.57749
chimesFF: 	6 6 6 -1.07719
chimesFF: 	6 7 0 0.29282
chimesFF: 	7 0 3 0.23640
chimesFF: 	7 0 6 -0.74056
chimesFF: 	7 3 4 -3.61148
chimesFF: 	7 4 6 0.61235
chimesFF: 	7 4 7 0.86137
chimesFF: 	7 5 2 -0.57085
chimesFF: 	7 6 3 -1.86789
chimesFF: 	7 6 5 1.14533
chimesFF: 	7 7 5 -0.34639
chimesFF: Read 3B parameters for triplet: 21 C H O
chimesFF: 	0 2 1 1.77963
chimesFF: 	0 2 5 1.04333
chimesFF: 	0 2 7 -3.85899
chimesFF: 	0 3 2 3.38425
chimesFF: 	0 3 6 -0.21697
chimesFF: 	0 4 2 2.15437
chimesFF: 	0 5 3 -0.09533
chimesFF: 	0 5 7 0.68458
chimesFF: 	0 6 2 -2.06816
chimesFF: 	0 6 5 1.26821
chimesFF: 	0 6 7 0.08435
chimesFF: 	0 7 5 1.24983
chimesFF: 	0 7 7 0.56862
chimesFF: 	1 3 7 -0.06086
chimesFF: 	1 6 0 -0.34332
chimesFF: 	1 6 2 0.71763
chimesFF: 	1 7 3 -0.72471
chimesFF: 	2 0 5 0.61008
chimesFF: 	2 0 6 -2.82752
chimesFF: 	2 2 7 1.69414
chimesFF: 	2 3 2 -1.10779
chimesFF: 	2 3 4 3.08759
chimesFF: 	2 5 0 0.08539
chimesFF: 	2 6 3 0.73393
chimesFF: 	2 7 3 2.59495
chimesFF: 	3 0 1 -0.25751
chimesFF: 	3 0 5 1.37372
chimesFF: 	3 0 7 -0.76647
chimesFF: 	3 2 5 -0.79151
chimesFF: 	3 2 7 6.00450
chimesFF: 	3 3 0 -0.88942
chimesFF: 	3 3 6 -0.10210
chimesFF: 	3 3 7 1.33988
chimesFF: 	3 4 0 -0.67129
chimesFF: 	3 4 2 4.83195
chimesFF: 	3 5 4 -1.31279
chimesFF: 	3 5 5 0.00433
chimesFF: 	3 6 4 1.66603
chimesFF: 	3 6 6 1.25020
chimesFF: 	3 7 0 0.13477
chimesFF: 	3 7 2 -2.53771
chimesFF: 	3 7 5 -0.45817
chimesFF: 	3 7 6 0.23364
chimesFF: 	3 7 7 0.22970
chimesFF: 	4 2 5 1.32247
chimesFF: 	4 3 1 -0.09393
chimesFF: 	4 3 5 1.52107
chimesFF: 	4 3 6 -0.72237
chimesFF: 	4 4 5 -0.21933
chimesFF: 	4 4 7 -0.73243
chimesFF: 	4 6 0 -0.67377
chimesFF: 	4 7 3 -0.02426
chimesFF: 	4 7 5 0.58098
chimesFF: 	5 2 4 -0.84876
chimesFF: 	5 2 5 1.96921
chimesFF: 	5 3 4 -1.19148
chimesFF: 	5 4 4 0.20074
chimesFF: 	5 4 7 0.23684
chimesFF: 	5 5 4 1.06700
chimesFF: 	5 6 3 0.32537
chimesFF: 	5 6 6 -0.42107
chimesFF: 	5 7 0 -0.07850
chimesFF: 	5 7 2 0.58185
chimesFF: 	6 0 4 1.14421
chimesFF: 	6 0 6 -0.04659
chimesFF: 	6 0 7 0.88041
chimesFF: 	6 2 7 -1.87462
chimesFF: 	6 3 5 -0.34028
chimesFF: 	6 3 6 0.04836
chimesFF: 	6 3 7 -0.75899
chimesFF: 	6 4 0 -0.02625
chimesFF: 	6 5 2 0.90043
chimesFF: 	6 5 5 0.97921
chimesFF: 	6 5 6 -0.45587
chimesFF: 	6 6 0 0.80026
chimesFF: 	6 6 3 -0.25918
chimesFF: 	6 6 5 0.29682
chimesFF: 	6 7 4 -0.63735
chimesFF: 	7 0 3 0.24634
chimesFF: 	7 0 5 0.14533
chimesFF: 	7 0 6 -1.63017
chimesFF: 	7 1 0 -1.21582
chimesFF: 	7 1 6 -2.48270
chimesFF: 	7 2 4 0.88414
chimesFF: 	7 2 6 0.34413
chimesFF: 	7 3 0 0.39089
chimesFF: 	7 3 4 0.22708
chimesFF: 	7 3 7 -0.19956
chimesFF: 	7 4 3 0.55896
chimesFF: 	7 4 6 -0.01180
chimesFF: 	7 5 4 -0.35903
chimesFF: 	7 6 0 -0.09843
chimesFF: 	7 6 6 0.30233
chimesFF: 	7 6 7 -0.72427
chimesFF: 	7 7 6 0.39133
chimesFF: Read 3B parameters for triplet: 22 C N N
chimesFF: 	0 2 3 -1.79864
chimesFF: 	2 0 3 -1.79864
chimesFF: 	0 2 6 3.52031
chimesFF: 	2 0 6 3.52031
chimesFF: 	0 2 7 2.55151
chimesFF: 	2 0 7 2.55151
chimesFF: 	0 5 4 -0.13454
chimesFF: 	5 0 4 -0.13454
chimesFF: 	0 5 6 2.46070
chimesFF: 	5 0 6 2.46070
chimesFF: 	0 7 3 1.25764
chimesFF: 	7 0 3 1.25764
chimesFF: 	1 6 3 -6.07828
chimesFF: 	6 1 3 -6.07828
chimesFF: 	2 4 5 -1.10806
chimesFF: 	4 2 5 -1.10806
chimesFF: 	3 5 0 -3.11366
chimesFF: 	5 3 0 -3.11366
chimesFF: 	3 6 0 -1.70093
chimesFF: 	6 3 0 -1.70093
chimesFF: 	3 6 3 2.33439
chimesFF: 	6 3 3 2.33439
chimesFF: 	3 7 7 0.88683
chimesFF: 	7 3 7 0.88683
chimesFF: 	4 6 0 -2.64023
chimesFF: 	6 4 0 -2.64023
chimesFF: 	5 6 5 -0.03488
chimesFF: 	6 5 5 -0.03488
chimesFF: 	5 6 6 -0.13907
chimesFF: 	6 5 6 -0.13907
chimesFF: 	5 7 0 1.11431
chimesFF: 	7 5 0 1.11431
chimesFF: 	6 6 0 -0.52204
chimesFF: 	6 6 6 -0.03177
chimesFF: 	6 7 0 0.78619
chimesFF: 	7 6 0 0.78619
chimesFF: 	7 7 7 0.09636
chimesFF: Read 3B parameters for triplet: 23 C N O
chimesFF: 	0 2 6 1.17256
chimesFF: 	0 7 5 0.04833
chimesFF: 	2 6 0 -0.61734
chimesFF: 	2 7 0 0.68569
chimesFF: 	2 7 5 -1.08946
chimesFF: 	3 5 7 -2.00945
chimesFF: 	3 6 7 1.16829
chimesFF: 	4 0 3 3.52845
chimesFF: 	4 2 0 -2.04468
chimesFF: 	4 2 5 0.42837
chimesFF: 	4 4 6 2.37777
chimesFF: 	4 6 0 2.03640
chimesFF: 	4 6 7 0.55665
chimesFF: 	5 6 0 1.76094
chimesFF: 	6 3 0 -1.54070
chimesFF: 	6 4 6 -1.55310
chimesFF: 	6 5 0 0.32479
chimesFF: 	6 5 2 -2.84207
chimesFF: 	6 5 5 -0.14528
chimesFF: 	6 7 6 -0.15126
chimesFF: 	6 7 7 0.57176
chimesFF: 	7 3 0 0.24519
chimesFF: 	7 6 5 0.99644
chimesFF: 	7 7 3 0.07300
chimesFF: 	7 7 7 -0.83203
chimesFF: Read 3B parameters for triplet: 24 C O O
chimesFF: 	0 1 4 0.98336
chimesFF: 	1 0 4 0.98336
chimesFF: 	0 2 3 8.10480
chimesFF: 	2 0 3 8.10480
chimesFF: 	0 2 5 -2.21369
chimesFF: 	2 0 5 -2.21369
chimesFF: 	0 2 6 4.53525
chimesFF: 	2 0 6 4.53525
chimesFF: 	0 3 3 10.70097
chimesFF: 	3 0 3 10.70097
chimesFF: 	0 3 5 -7.05220
chimesFF: 	3 0 5 -7.05220
chimesFF: 	0 3 7 1.25728
chimesFF: 	3 0 7 1.25728
chimesFF: 	0 4 5 -6.12200
chimesFF: 	4 0 5 -6.12200
chimesFF: 	0 4 7 0.17433
chimesFF: 	4 0 7 0.17433
chimesFF: 	0 6 6 0.11878
chimesFF: 	6 0 6 0.11878
chimesFF: 	0 6 7 -1.54676
chimesFF: 	6 0 7 -1.54676
chimesFF: 	0 7 3 0.04165
chimesFF: 	7 0 3 0.04165
chimesFF: 	0 7 5 -0.38255
chimesFF: 	7 0 5 -0.38255
chimesFF: 	0 7 6 0.57066
chimesFF: 	7 0 6 0.57066
chimesFF: 	1 2 4 -0.01566
chimesFF: 	2 1 4 -0.01566
chimesFF: 	1 2 6 1.23974
chimesFF: 	2 1 6 1.23974
chimesFF: 	1 3 6 1.46972
chimesFF: 	3 1 6 1.46972
chimesFF: 	1 3 7 0.70266
chimesFF: 	3 1 7 0.70266
chimesFF: 	1 4 3 -9.94733
chimesFF: 	4 1 3 -9.94733
chimesFF: 	1 4 6 -0.19074
chimesFF: 	4 1 6 -0.19074
chimesFF: 	2 4 5 1.65985
chimesFF: 	4 2 5 1.65985
chimesFF: 	2 5 4 0.02637
chimesFF: 	5 2 4 0.02637
chimesFF: 	2 6 0 -0.38146
chimesFF: 	6 2 0 -0.38146
chimesFF: 	3 3 7 -1.31297
chimesFF: 	3 4 6 1.90815
chimesFF: 	4 3 6 1.90815
chimesFF: 	3 4 7 -1.03619
chimesFF: 	4 3 7 -1.03619
chimesFF: 	3 5 4 -1.20105
chimesFF: 	5 3 4 -1.20105
chimesFF: 	3 5 6 3.71352
chimesFF: 	5 3 6 3.71352
chimesFF: 	3 6 0 0.78320
chimesFF: 	6 3 0 0.78320
chimesFF: 	3 6 3 1.27108
chimesFF: 	6 3 3 1.27108
chimesFF: 	3 6 7 3.37058
chimesFF: 	6 3 7 3.37058
chimesFF: 	3 7 0 -0.42457
chimesFF: 	7 3 0 -0.42457
chimesFF: 	3 7 6 -0.39201
chimesFF: 	7 3 6 -0.39201
chimesFF: 	3 7 7 0.51484
chimesFF: 	7 3 7 0.51484
chimesFF: 	4 6 4 0.95701
chimesFF: 	6 4 4 0.95701
chimesFF: 	4 6 6 -2.50935
chimesFF: 	6 4 6 -2.50935
chimesFF: 	4 6 7 0.64949
chimesFF: 	6 4 7 0.64949
chimesFF: 	5 6 0 -0.45317
chimesFF: 	6 5 0 -0.45317
chimesFF: 	5 6 2 0.77891
chimesFF: 	6 5 2 0.77891
chimesFF: 	5 7 4 0.14689
chimesFF: 	7 5 4 0.14689
chimesFF: 	5 7 6 -0.13925
chimesFF: 	7 5 6 -0.13925
chimesFF: 	5 7 7 -2.58962
chimesFF: 	7 5 7 -2.58962
chimesFF: 	6 6 0 0.26952
chimesFF: 	6 6 7 -0.85779
chimesFF: 	6 7 0 0.59231
chimesFF: 	7 6 0 0.59231
chimesFF: 	6 7 3 0.77217
chimesFF: 	7 6 3 0.77217
chimesFF: 	6 7 5 -0.59791
chimesFF: 	7 6 5 -0.59791
chimesFF: 	6 7 6 0.80935
chimesFF: 	7 6 6 0.80935
chimesFF: 	7 7 0 0.23144
chimesFF: 	7 7 5 -0.16272
chimesFF: 	7 7 6 0.42957
chimesFF: Read 3B parameters for triplet: 25 H H H
chimesFF: 	0 1 1 0.60640
chimesFF: 	1 0 1 0.60640
chimesFF: 	1 1 0 0.60640
chimesFF: 	0 1 2 -0.05699
chimesFF: 	1 0 2 -0.05699
chimesFF: 	0 2 1 -0.05699
chimesFF: 	2 0 1 -0.05699
chimesFF: 	1 2 0 -0.05699
chimesFF: 	2 1 0 -0.05699
chimesFF: 	0 1 3 -1.38187
chimesFF: 	1 0 3 -1.38187
chimesFF: 	0 3 1 -1.38187
chimesFF: 	3 0 1 -1.38187
chimesFF: 	1 3 0 -1.38187
chimesFF: 	3 1 0 -1.38187
chimesFF: 	0 1 5 0.56353
chimesFF: 	1 0 5 0.56353
chimesFF: 	0 5 1 0.56353
chimesFF: 	5 0 1 0.56353
chimesFF: 	1 5 0 0.56353
chimesFF: 	5 1 0 0.56353
chimesFF: 	0 1 6 -0.01344
chimesFF: 	1 0 6 -0.01344
chimesFF: 	0 6 1 -0.01344
chimesFF: 	6 0 1 -0.01344
chimesFF: 	1 6 0 -0.01344
chimesFF: 	6 1 0 -0.01344
chimesFF: 	0 1 7 -0.20413
chimesFF: 	1 0 7 -0.20413
chimesFF: 	0 7 1 -0.20413
chimesFF: 	7 0 1 -0.20413
chimesFF: 	1 7 0 -0.20413
chimesFF: 	7 1 0 -0.20413
chimesFF: 	0 2 3 -0.15802
chimesFF: 	2 0 3 -0.15802
chimesFF: 	0 3 2 -0.15802
chimesFF: 	3 0 2 -0.15802
chimesFF: 	2 3 0 -0.15802
chimesFF: 	3 2 0 -0.15802
chimesFF: 	0 3 3 0.62361
chimesFF: 	3 0 3 0.62361
chimesFF: 	3 3 0 0.62361
chimesFF: 	0 3 4 -0.09051
chimesFF: 	3 0 4 -0.09051
chimesFF: 	0 4 3 -0.09051
chimesFF: 	4 0 3 -0.09051
chimesFF: 	3 4 0 -0.09051
chimesFF: 	4 3 0 -0.09051
chimesFF: 	0 3 6 1.17143
chimesFF: 	3 0 6 1.17143
chimesFF: 	0 6 3 1.17143
chimesFF: 	6 0 3 1.17143
chimesFF: 	3 6 0 1.17143
chimesFF: 	6 3 0 1.17143
chimesFF: 	0 3 7 0.28161
chimesFF: 	3 0 7 0.28161
chimesFF: 	0 7 3 0.28161
chimesFF: 	7 0 3 0.28161
chimesFF: 	3 7 0 0.28161
chimesFF: 	7 3 0 0.28161
chimesFF: 	0 4 7 -0.21382
chimesFF: 	4 0 7 -0.21382
chimesFF: 	0 7 4 -0.21382
chimesFF: 	7 0 4 -0.21382
chimesFF: 	4 7 0 -0.21382
chimesFF: 	7 4 0 -0.21382
chimesFF: 	0 5 6 -0.44000
chimesFF: 	5 0 6 -0.44000
chimesFF: 	0 6 5 -0.44000
chimesFF: 	6 0 5 -0.44000
chimesFF: 	5 6 0 -0.44000
chimesFF: 	6 5 0 -0.44000
chimesFF: 	0 7 7 -0.20285
chimesFF: 	7 0 7 -0.20285
chimesFF: 	7 7 0 -0.20285
chimesFF: 	2 3 7 -0.01581
chimesFF: 	3 2 7 -0.01581
chimesFF: 	2 7 3 -0.01581
chimesFF: 	7 2 3 -0.01581
chimesFF: 	3 7 2 -0.01581
chimesFF: 	7 3 2 -0.01581
chimesFF: 	2 4 7 0.14674
chimesFF: 	4 2 7 0.14674
chimesFF: 	2 7 4 0.14674
chimesFF: 	7 2 4 0.14674
chimesFF: 	4 7 2 0.14674
chimesFF: 	7 4 2 0.14674
chimesFF: 	3 4 7 -0.17956
chimesFF: 	4 3 7 -0.17956
chimesFF: 	3 7 4 -0.17956
chimesFF: 	7 3 4 -0.17956
chimesFF: 	4 7 3 -0.17956
chimesFF: 	7 4 3 -0.17956
chimesFF: 	3 5 6 -0.35148
chimesFF: 	5 3 6 -0.35148
chimesFF: 	3 6 5 -0.35148
chimesFF: 	6 3 5 -0.35148
chimesFF: 	5 6 3 -0.35148
chimesFF: 	6 5 3 -0.35148
chimesFF: 	5 6 6 -0.14149
chimesFF: 	6 5 6 -0.14149
chimesFF: 	6 6 5 -0.14149
chimesFF: 	6 7 7 -0.07087
chimesFF: 	7 6 7 -0.07087
chimesFF: 	7 7 6 -0.07087
chimesFF: Read 3B parameters for triplet: 26 H H N
chimesFF: 	0 1 2 -0.37638
chimesFF: 	0 2 1 -0.37638
chimesFF: 	0 1 5 -0.34593
chimesFF: 	0 5 1 -0.34593
chimesFF: 	0 2 4 -0.83875
chimesFF: 	0 4 2 -0.83875
chimesFF: 	0 3 6 -0.05571
chimesFF: 	0 6 3 -0.05571
chimesFF: 	0 5 6 0.18186
chimesFF: 	0 6 5 0.18186
chimesFF: 	0 5 7 0.06814
chimesFF: 	0 7 5 0.06814
chimesFF: 	1 0 1 0.38296
chimesFF: 	1 1 0 0.38296
chimesFF: 	1 0 7 0.03528
chimesFF: 	1 7 0 0.03528
chimesFF: 	4 6 7 -0.67759
chimesFF: 	4 7 6 -0.67759
chimesFF: 	5 0 3 0.40820
chimesFF: 	5 3 0 0.40820
chimesFF: 	5 0 7 -0.16217
chimesFF: 	5 7 0 -0.16217
chimesFF: 	5 3 4 0.51260
chimesFF: 	5 4 3 0.51260
chimesFF: 	5 5 6 0.40376
chimesFF: 	5 6 5 0.40376
chimesFF: 	5 7 7 -0.43908
chimesFF: 	6 3 6 0.28848
chimesFF: 	6 6 3 0.28848
chimesFF: 	7 0 5 0.27832
chimesFF: 	7 5 0 0.27832
chimesFF: 	7 0 6 -0.25033
chimesFF: 	7 6 0 -0.25033
chimesFF: 	7 2 6 0.40393
chimesFF: 	7 6 2 0.40393
chimesFF: 	7 3 7 0.03550
chimesFF: 	7 7 3 0.03550
chimesFF: Read 3B parameters for triplet: 27 H H O
chimesFF: 	0 1 2 -2.25388
chimesFF: 	0 2 1 -2.25388
chimesFF: 	0 1 5 0.88446
chimesFF: 	0 5 1 0.88446
chimesFF: 	0 1 6 -0.09905
chimesFF: 	0 6 1 -0.09905
chimesFF: 	0 1 7 0.95507
chimesFF: 	0 7 1 0.95507
chimesFF: 	0 2 3 0.81870
chimesFF: 	0 3 2 0.81870
chimesFF: 	0 2 5 -0.35902
chimesFF: 	0 5 2 -0.35902
chimesFF: 	0 2 6 -0.40056
chimesFF: 	0 6 2 -0.40056
chimesFF: 	0 4 5 0.28200
chimesFF: 	0 5 4 0.28200
chimesFF: 	0 4 6 -0.17112
chimesFF: 	0 6 4 -0.17112
chimesFF: 	0 5 5 -0.00998
chimesFF: 	0 6 6 0.02825
chimesFF: 	0 6 7 0.08542
chimesFF: 	0 7 6 0.08542
chimesFF: 	1 0 2 2.71851
chimesFF: 	1 2 0 2.71851
chimesFF: 	1 0 3 1.34098
chimesFF: 	1 3 0 1.34098
chimesFF: 	1 0 5 -1.02522
chimesFF: 	1 5 0 -1.02522
chimesFF: 	1 1 4 -0.79203
chimesFF: 	1 4 1 -0.79203
chimesFF: 	1 3 6 -0.23330
chimesFF: 	1 6 3 -0.23330
chimesFF: 	1 5 7 -0.14536
chimesFF: 	1 7 5 -0.14536
chimesFF: 	1 6 7 -0.00053
chimesFF: 	1 7 6 -0.00053
chimesFF: 	2 0 6 -0.80470
chimesFF: 	2 6 0 -0.80470
chimesFF: 	2 2 4 -1.78644
chimesFF: 	2 4 2 -1.78644
chimesFF: 	2 3 4 -0.32082
chimesFF: 	2 4 3 -0.32082
chimesFF: 	2 4 5 1.10157
chimesFF: 	2 5 4 1.10157
chimesFF: 	2 4 6 -0.33315
chimesFF: 	2 6 4 -0.33315
chimesFF: 	2 4 7 -0.91862
chimesFF: 	2 7 4 -0.91862
chimesFF: 	2 5 6 -0.23693
chimesFF: 	2 6 5 -0.23693
chimesFF: 	2 5 7 0.08934
chimesFF: 	2 7 5 0.08934
chimesFF: 	3 0 1 -0.23785
chimesFF: 	3 1 0 -0.23785
chimesFF: 	3 0 3 -0.04870
chimesFF: 	3 3 0 -0.04870
chimesFF: 	3 1 7 -0.47742
chimesFF: 	3 7 1 -0.47742
chimesFF: 	3 2 6 -0.52891
chimesFF: 	3 6 2 -0.52891
chimesFF: 	3 3 4 0.94035
chimesFF: 	3 4 3 0.94035
chimesFF: 	3 3 5 -1.31467
chimesFF: 	3 5 3 -1.31467
chimesFF: 	3 3 7 0.27734
chimesFF: 	3 7 3 0.27734
chimesFF: 	3 4 6 0.26449
chimesFF: 	3 6 4 0.26449
chimesFF: 	3 7 7 0.04784
chimesFF: 	4 0 5 -1.31742
chimesFF: 	4 5 0 -1.31742
chimesFF: 	4 1 2 0.92878
chimesFF: 	4 2 1 0.92878
chimesFF: 	4 3 5 1.28014
chimesFF: 	4 5 3 1.28014
chimesFF: 	4 3 7 -0.31014
chimesFF: 	4 7 3 -0.31014
chimesFF: 	4 6 6 -0.66546
chimesFF: 	5 0 1 0.27941
chimesFF: 	5 1 0 0.27941
chimesFF: 	5 0 4 -0.06440
chimesFF: 	5 4 0 -0.06440
chimesFF: 	5 0 6 0.73674
chimesFF: 	5 6 0 0.73674
chimesFF: 	5 1 3 -1.14048
chimesFF: 	5 3 1 -1.14048
chimesFF: 	5 1 5 0.40533
chimesFF: 	5 5 1 0.40533
chimesFF: 	5 2 4 2.02921
chimesFF: 	5 4 2 2.02921
chimesFF: 	5 2 5 -0.20324
chimesFF: 	5 5 2 -0.20324
chimesFF: 	5 3 3 1.21942
chimesFF: 	5 3 6 -0.23665
chimesFF: 	5 6 3 -0.23665
chimesFF: 	5 5 6 0.97016
chimesFF: 	5 6 5 0.97016
chimesFF: 	6 0 3 1.45275
chimesFF: 	6 3 0 1.45275
chimesFF: 	6 0 5 -0.59665
chimesFF: 	6 5 0 -0.59665
chimesFF: 	6 1 2 1.45022
chimesFF: 	6 2 1 1.45022
chimesFF: 	6 1 3 1.68137
chimesFF: 	6 3 1 1.68137
chimesFF: 	6 2 3 -0.43700
chimesFF: 	6 3 2 -0.43700
chimesFF: 	6 2 6 0.54848
chimesFF: 	6 6 2 0.54848
chimesFF: 	6 3 5 2.29781
chimesFF: 	6 5 3 2.29781
chimesFF: 	6 3 6 1.23353
chimesFF: 	6 6 3 1.23353
chimesFF: 	6 4 6 -1.03042
chimesFF: 	6 6 4 -1.03042
chimesFF: 	6 4 7 -0.85836
chimesFF: 	6 7 4 -0.85836
chimesFF: 	6 5 6 -0.22407
chimesFF: 	6 6 5 -0.22407
chimesFF: 	6 7 7 0.17334
chimesFF: 	7 0 2 -1.96347
chimesFF: 	7 2 0 -1.96347
chimesFF: 	7 0 4 0.11215
chimesFF: 	7 4 0 0.11215
chimesFF: 	7 0 5 0.39434
chimesFF: 	7 5 0 0.39434
chimesFF: 	7 0 6 -0.10449
chimesFF: 	7 6 0 -0.10449
chimesFF: 	7 1 2 -0.18717
chimesFF: 	7 2 1 -0.18717
chimesFF: 	7 1 7 -0.96194
chimesFF: 	7 7 1 -0.96194
chimesFF: 	7 2 3 1.82300
chimesFF: 	7 3 2 1.82300
chimesFF: 	7 2 4 -0.48978
chimesFF: 	7 4 2 -0.48978
chimesFF: 	7 2 5 -0.66458
chimesFF: 	7 5 2 -0.66458
chimesFF: 	7 2 7 0.18747
chimesFF: 	7 7 2 0.18747
chimesFF: 	7 3 4 -0.42755
chimesFF: 	7 4 3 -0.42755
chimesFF: 	7 3 6 1.41906
chimesFF: 	7 6 3 1.41906
chimesFF: 	7 4 5 0.29459
chimesFF: 	7 5 4 0.29459
chimesFF: 	7 4 7 -0.26070
chimesFF: 	7 7 4 -0.26070
chimesFF: 	7 5 5 0.73714
chimesFF: 	7 5 7 -0.20973
chimesFF: 	7 7 5 -0.20973
chimesFF: 	7 6 6 -0.04328
chimesFF: 	7 7 7 0.28182
chimesFF: Read 3B parameters for triplet: 28 H N N
chimesFF: 	0 2 5 0.30787
chimesFF: 	2 0 5 0.30787
chimesFF: 	0 4 7 -0.22462
chimesFF: 	4 0 7 -0.22462
chimesFF: 	0 5 4 -0.31758
chimesFF: 	5 0 4 -0.31758
chimesFF: 	0 5 7 0.79526
chimesFF: 	5 0 7 0.79526
chimesFF: 	0 6 3 0.10332
chimesFF: 	6 0 3 0.10332
chimesFF: 	0 7 7 -1.44698
chimesFF: 	7 0 7 -1.44698
chimesFF: 	2 4 0 -4.54318
chimesFF: 	4 2 0 -4.54318
chimesFF: 	2 4 2 6.01563
chimesFF: 	4 2 2 6.01563
chimesFF: 	2 4 3 8.27503
chimesFF: 	4 2 3 8.27503
chimesFF: 	2 4 5 -2.66364
chimesFF: 	4 2 5 -2.66364
chimesFF: 	2 6 0 0.16671
chimesFF: 	6 2 0 0.16671
chimesFF: 	2 6 3 -2.10313
chimesFF: 	6 2 3 -2.10313
chimesFF: 	2 6 5 0.47774
chimesFF: 	6 2 5 0.47774
chimesFF: 	2 6 6 1.57880
chimesFF: 	6 2 6 1.57880
chimesFF: 	2 7 0 -1.19898
chimesFF: 	7 2 0 -1.19898
chimesFF: 	3 4 3 1.80210
chimesFF: 	4 3 3 1.80210
chimesFF: 	3 4 5 -0.69957
chimesFF: 	4 3 5 -0.69957
chimesFF: 	3 5 0 -1.16987
chimesFF: 	5 3 0 -1.16987
chimesFF: 	3 5 3 3.30623
chimesFF: 	5 3 3 3.30623
chimesFF: 	3 5 6 -1.72733
chimesFF: 	5 3 6 -1.72733
chimesFF: 	3 5 7 -0.22585
chimesFF: 	5 3 7 -0.22585
chimesFF: 	3 6 4 -0.41403
chimesFF: 	6 3 4 -0.41403
chimesFF: 	3 6 6 0.93069
chimesFF: 	6 3 6 0.93069
chimesFF: 	3 7 0 -1.90656
chimesFF: 	7 3 0 -1.90656
chimesFF: 	3 7 3 5.64695
chimesFF: 	7 3 3 5.64695
chimesFF: 	3 7 5 -0.58458
chimesFF: 	7 3 5 -0.58458
chimesFF: 	3 7 7 4.07784
chimesFF: 	7 3 7 4.07784
chimesFF: 	4 5 3 0.23276
chimesFF: 	5 4 3 0.23276
chimesFF: 	4 6 4 1.05190
chimesFF: 	6 4 4 1.05190
chimesFF: 	5 5 0 2.44041
chimesFF: 	5 5 3 -1.17601
chimesFF: 	5 5 7 1.13719
chimesFF: 	5 7 0 1.06769
chimesFF: 	7 5 0 1.06769
chimesFF: 	6 6 3 0.60320
chimesFF: 	6 6 5 -0.15914
chimesFF: 	6 7 7 -0.93130
chimesFF: 	7 6 7 -0.93130
chimesFF: 	7 7 3 0.62884
chimesFF: 	7 7 5 -0.35709
chimesFF: 	7 7 6 -0.05024
chimesFF: Read 3B parameters for triplet: 29 H N O
chimesFF: 	0 2 5 1.19001
chimesFF: 	0 2 7 -3.96098
chimesFF: 	0 3 3 -0.86072
chimesFF: 	0 3 6 -0.20049
chimesFF: 	0 4 6 0.89312
chimesFF: 	0 6 4 -0.15872
chimesFF: 	0 6 5 0.32334
chimesFF: 	0 7 5 -0.30185
chimesFF: 	0 7 7 0.89252
chimesFF: 	1 0 2 3.46551
chimesFF: 	1 0 3 -3.91961
chimesFF: 	2 1 0 -1.47680
chimesFF: 	2 3 3 1.37055
chimesFF: 	2 4 7 -0.31840
chimesFF: 	2 6 0 -1.39789
chimesFF: 	2 6 6 -0.16562
chimesFF: 	3 4 0 -0.50472
chimesFF: 	3 5 3 0.03529
chimesFF: 	4 0 2 0.64973
chimesFF: 	4 4 6 -0.38285
chimesFF: 	5 0 4 1.67753
chimesFF: 	5 4 0 0.30338
chimesFF: 	5 4 6 0.74545
chimesFF: 	6 0 6 0.43928
chimesFF: 	6 7 6 -0.01468
chimesFF: 	7 6 0 0.55429
chimesFF: 	7 6 3 0.00485
chimesFF: 	7 6 5 -0.55160
chimesFF: Read 3B parameters for triplet: 30 H O O
chimesFF: 	0 2 1 -12.05605
chimesFF: 	2 0 1 -12.05605
chimesFF: 	0 2 4 -4.25250
chimesFF: 	2 0 4 -4.25250
chimesFF: 	0 2 5 2.46371
chimesFF: 	2 0 5 2.46371
chimesFF: 	0 2 6 1.25615
chimesFF: 	2 0 6 1.25615
chimesFF: 	0 2 7 -1.82833
chimesFF: 	2 0 7 -1.82833
chimesFF: 	0 3 6 0.22493
chimesFF: 	3 0 6 0.22493
chimesFF: 	0 3 7 -0.56931
chimesFF: 	3 0 7 -0.56931
chimesFF: 	0 4 4 0.85047
chimesFF: 	4 0 4 0.85047
chimesFF: 	0 4 5 0.31200
chimesFF: 	4 0 5 0.31200
chimesFF: 	0 5 2 -2.16032
chimesFF: 	5 0 2 -2.16032
chimesFF: 	0 5 3 0.11725
chimesFF: 	5 0 3 0.11725
chimesFF: 	0 5 5 -0.15965
chimesFF: 	5 0 5 -0.15965
chimesFF: 	0 6 2 0.79314
chimesFF: 	6 0 2 0.79314
chimesFF: 	0 6 4 -0.23966
chimesFF: 	6 0 4 -0.23966
chimesFF: 	0 7 3 -0.71312
chimesFF: 	7 0 3 -0.71312
chimesFF: 	0 7 5 -0.67674
chimesFF: 	7 0 5 -0.67674
chimesFF: 	1 1 6 -1.23440
chimesFF: 	1 2 4 -4.56662
chimesFF: 	2 1 4 -4.56662
chimesFF: 	1 3 3 -2.44436
chimesFF: 	3 1 3 -2.44436
chimesFF: 	1 4 6 -2.57582
chimesFF: 	4 1 6 -2.57582
chimesFF: 	1 5 3 1.60262
chimesFF: 	5 1 3 1.60262
chimesFF: 	1 7 6 0.34130
chimesFF: 	7 1 6 0.34130
chimesFF: 	1 7 7 -0.90903
chimesFF: 	7 1 7 -0.90903
chimesFF: 	2 2 5 -2.97934
chimesFF: 	2 3 2 -1.51165
chimesFF: 	3 2 2 -1.51165
chimesFF: 	2 3 7 1.08586
chimesFF: 	3 2 7 1.08586
chimesFF: 	2 4 4 -3.21391
chimesFF: 	4 2 4 -3.21391
chimesFF: 	2 4 5 0.19248
chimesFF: 	4 2 5 0.19248
chimesFF: 	2 4 7 -0.13229
chimesFF: 	4 2 7 -0.13229
chimesFF: 	2 5 0 -0.02068
chimesFF: 	5 2 0 -0.02068
chimesFF: 	2 5 3 -0.50489
chimesFF: 	5 2 3 -0.50489
chimesFF: 	2 5 6 0.81922
chimesFF: 	5 2 6 0.81922
chimesFF: 	2 5 7 -0.83343
chimesFF: 	5 2 7 -0.83343
chimesFF: 	2 6 5 0.51878
chimesFF: 	6 2 5 0.51878
chimesFF: 	2 6 7 0.35574
chimesFF: 	6 2 7 0.35574
chimesFF: 	2 7 3 1.60526
chimesFF: 	7 2 3 1.60526
chimesFF: 	2 7 6 -0.28975
chimesFF: 	7 2 6 -0.28975
chimesFF: 	3 4 0 -2.03232
chimesFF: 	4 3 0 -2.03232
chimesFF: 	3 4 6 0.56611
chimesFF: 	4 3 6 0.56611
chimesFF: 	3 4 7 0.28331
chimesFF: 	4 3 7 0.28331
chimesFF: 	3 5 7 -0.59294
chimesFF: 	5 3 7 -0.59294
chimesFF: 	3 6 0 2.63008
chimesFF: 	6 3 0 2.63008
chimesFF: 	3 6 4 0.64256
chimesFF: 	6 3 4 0.64256
chimesFF: 	3 6 6 -0.52590
chimesFF: 	6 3 6 -0.52590
chimesFF: 	3 7 1 -1.40668
chimesFF: 	7 3 1 -1.40668
chimesFF: 	3 7 4 -0.12476
chimesFF: 	7 3 4 -0.12476
chimesFF: 	3 7 5 0.37559
chimesFF: 	7 3 5 0.37559
chimesFF: 	4 4 3 -0.80791
chimesFF: 	4 5 1 -3.25808
chimesFF: 	5 4 1 -3.25808
chimesFF: 	4 5 3 0.87059
chimesFF: 	5 4 3 0.87059
chimesFF: 	4 5 4 1.26297
chimesFF: 	5 4 4 1.26297
chimesFF: 	4 5 5 0.07554
chimesFF: 	5 4 5 0.07554
chimesFF: 	4 5 6 -0.78794
chimesFF: 	5 4 6 -0.78794
chimesFF: 	4 6 3 0.68800
chimesFF: 	6 4 3 0.68800
chimesFF: 	4 6 5 -0.31042
chimesFF: 	6 4 5 -0.31042
chimesFF: 	4 7 1 0.14675
chimesFF: 	7 4 1 0.14675
chimesFF: 	4 7 2 -0.47719
chimesFF: 	7 4 2 -0.47719
chimesFF: 	4 7 3 -0.30954
chimesFF: 	7 4 3 -0.30954
chimesFF: 	4 7 4 0.33833
chimesFF: 	7 4 4 0.33833
chimesFF: 	4 7 6 0.65061
chimesFF: 	7 4 6 0.65061
chimesFF: 	4 7 7 0.15690
chimesFF: 	7 4 7 0.15690
chimesFF: 	5 5 0 0.94628
chimesFF: 	5 6 0 -0.67964
chimesFF: 	6 5 0 -0.67964
chimesFF: 	5 6 6 0.90303
chimesFF: 	6 5 6 0.90303
chimesFF: 	5 7 0 -0.18233
chimesFF: 	7 5 0 -0.18233
chimesFF: 	5 7 2 0.87334
chimesFF: 	7 5 2 0.87334
chimesFF: 	5 7 3 -0.68090
chimesFF: 	7 5 3 -0.68090
chimesFF: 	5 7 6 0.87613
chimesFF: 	7 5 6 0.87613
chimesFF: 	5 7 7 -0.21020
chimesFF: 	7 5 7 -0.21020
chimesFF: 	6 6 2 0.12902
chimesFF: 	6 6 6 -0.58925
chimesFF: 	6 6 7 -0.29780
chimesFF: 	6 7 1 -0.75209
chimesFF: 	7 6 1 -0.75209
chimesFF: 	6 7 5 0.76504
chimesFF: 	7 6 5 0.76504
chimesFF: 	7 7 0 0.06639
chimesFF: 	7 7 3 0.19768
chimesFF: 	7 7 5 0.08133
chimesFF: 	7 7 6 -1.00825
chimesFF: 	7 7 7 -0.80778
chimesFF: Read 3B parameters for triplet: 31 N N N
chimesFF: 	1 3 7 0.23687
chimesFF: 	3 1 7 0.23687
chimesFF: 	1 7 3 0.23687
chimesFF: 	7 1 3 0.23687
chimesFF: 	3 7 1 0.23687
chimesFF: 	7 3 1 0.23687
chimesFF: Read 3B parameters for triplet: 32 N N O
chimesFF: 	7 5 7 -0.66233
chimesFF: 	7 7 5 -0.66233
chimesFF: Read 3B parameters for triplet: 33 N O O
chimesFF: Read 3B parameters for triplet: 34 O O O
chimesFF: 	0 1 2 1.95232
chimesFF: 	1 0 2 1.95232
chimesFF: 	0 2 1 1.95232
chimesFF: 	2 0 1 1.95232
chimesFF: 	1 2 0 1.95232
chimesFF: 	2 1 0 1.95232
chimesFF: 	0 2 3 -2.12255
chimesFF: 	2 0 3 -2.12255
chimesFF: 	0 3 2 -2.12255
chimesFF: 	3 0 2 -2.12255
chimesFF: 	2 3 0 -2.12255
chimesFF: 	3 2 0 -2.12255
chimesFF: 	0 3 6 -0.33646
chimesFF: 	3 0 6 -0.33646
chimesFF: 	0 6 3 -0.33646
chimesFF: 	6 0 3 -0.33646
chimesFF: 	3 6 0 -0.33646
chimesFF: 	6 3 0 -0.33646
chimesFF: 	0 3 7 0.45948
chimesFF: 	3 0 7 0.45948
chimesFF: 	0 7 3 0.45948
chimesFF: 	7 0 3 0.45948
chimesFF: 	3 7 0 0.45948
chimesFF: 	7 3 0 0.45948
chimesFF: 	0 5 6 0.57580
chimesFF: 	5 0 6 0.57580
chimesFF: 	0 6 5 0.57580
chimesFF: 	6 0 5 0.57580
chimesFF: 	5 6 0 0.57580
chimesFF: 	6 5 0 0.57580
chimesFF: 	2 5 7 0.19370
chimesFF: 	5 2 7 0.19370
chimesFF: 	2 7 5 0.19370
chimesFF: 	7 2 5 0.19370
chimesFF: 	5 7 2 0.19370
chimesFF: 	7 5 2 0.19370
chimesFF: 	4 5 7 -0.64106
chimesFF: 	5 4 7 -0.64106
chimesFF: 	4 7 5 -0.64106
chimesFF: 	7 4 5 -0.64106
chimesFF: 	5 7 4 -0.64106
chimesFF: 	7 5 4 -0.64106
chimesFF: Built the following 3-body pair "slow" map:
chimesFF: 	0 AlAlAlAlAlAl
chimesFF: 	1 AlAlAlCAlC
chimesFF: 	2 AlAlAlHAlH
chimesFF: 	3 AlAlAlNAlN
chimesFF: 	4 AlAlAlOAlO
chimesFF: 	1 AlCAlAlAlC
chimesFF: 	1 AlCAlCAlAl
chimesFF: 	5 AlCAlCCC
chimesFF: 	6 AlCAlHCH
chimesFF: 	7 AlCAlNCN
chimesFF: 	8 AlCAlOCO
chimesFF: 	5 AlCCCAlC
chimesFF: 	6 AlCCHAlH
chimesFF: 	7 AlCCNAlN
chimesFF: 	8 AlCCOAlO
chimesFF: 	2 AlHAlAlAlH
chimesFF: 	6 AlHAlCCH
chimesFF: 	2 AlHAlHAlAl
chimesFF: 	9 AlHAlHHH
chimesFF: 	10 AlHAlNHN
chimesFF: 	11 AlHAlOHO
chimesFF: 	6 AlHCHAlC
chimesFF: 	9 AlHHHAlH
chimesFF: 	10 AlHHNAlN
chimesFF: 	11 AlHHOAlO
chimesFF: 	3 AlNAlAlAlN
chimesFF: 	7 AlNAlCCN
chimesFF: 	10 AlNAlHHN
chimesFF: 	3 AlNAlNAlAl
chimesFF: 	12 AlNAlNNN
chimesFF: 	13 AlNAlONO
chimesFF: 	7 AlNCNAlC
chimesFF: 	10 AlNHNAlH
chimesFF: 	12 AlNNNAlN
chimesFF: 	13 AlNNOAlO
chimesFF: 	4 AlOAlAlAlO
chimesFF: 	8 AlOAlCCO
chimesFF: 	11 AlOAlHHO
chimesFF: 	13 AlOAlNNO
chimesFF: 	4 AlOAlOAlAl
chimesFF: 	14 AlOAlOOO
chimesFF: 	8 AlOCOAlC
chimesFF: 	11 AlOHOAlH
chimesFF: 	13 AlONOAlN
chimesFF: 	14 AlOOOAlO
chimesFF: 	5 CCAlCAlC
chimesFF: 	15 CCCCCC
chimesFF: 	16 CCCHCH
chimesFF: 	17 CCCNCN
chimesFF: 	18 CCCOCO
chimesFF: 	6 CHAlCAlH
chimesFF: 	6 CHAlHAlC
chimesFF: 	16 CHCCCH
chimesFF: 	16 CHCHCC
chimesFF: 	19 CHCHHH
chimesFF: 	20 CHCNHN
chimesFF: 	21 CHCOHO
chimesFF: 	19 CHHHCH
chimesFF: 	20 CHHNCN
chimesFF: 	21 CHHOCO
chimesFF: 	7 CNAlCAlN
chimesFF: 	7 CNAlNAlC
chimesFF: 	17 CNCCCN
chimesFF: 	20 CNCHHN
chimesFF: 	17 CNCNCC
chimesFF: 	22 CNCNNN
chimesFF: 	23 CNCONO
chimesFF: 	20 CNHNCH
chimesFF: 	22 CNNNCN
chimesFF: 	23 CNNOCO
chimesFF: 	8 COAlCAlO
chimesFF: 	8 COAlOAlC
chimesFF: 	18 COCCCO
chimesFF: 	21 COCHHO
chimesFF: 	23 COCNNO
chimesFF: 	18 COCOCC
chimesFF: 	24 COCOOO
chimesFF: 	21 COHOCH
chimesFF: 	23 CONOCN
chimesFF: 	24 COOOCO
chimesFF: 	9 HHAlHAlH
chimesFF: 	19 HHCHCH
chimesFF: 	25 HHHHHH
chimesFF: 	26 HHHNHN
chimesFF: 	27 HHHOHO
chimesFF: 	10 HNAlHAlN
chimesFF: 	10 HNAlNAlH
chimesFF: 	20 HNCHCN
chimesFF: 	20 HNCNCH
chimesFF: 	26 HNHHHN
chimesFF: 	26 HNHNHH
chimesFF: 	28 HNHNNN
chimesFF: 	29 HNHONO
chimesFF: 	28 HNNNHN
chimesFF: 	29 HNNOHO
chimesFF: 	11 HOAlHAlO
chimesFF: 	11 HOAlOAlH
chimesFF: 	21 HOCHCO
chimesFF: 	21 HOCOCH
chimesFF: 	27 HOHHHO
chimesFF: 	29 HOHNNO
chimesFF: 	27 HOHOHH
chimesFF: 	30 HOHOOO
chimesFF: 	29 HONOHN
chimesFF: 	30 HOOOHO
chimesFF: 	12 NNAlNAlN
chimesFF: 	22 NNCNCN
chimesFF: 	28 NNHNHN
chimesFF: 	31 NNNNNN
chimesFF: 	32 NNNONO
chimesFF: 	13 NOAlNAlO
chimesFF: 	13 NOAlOAlN
chimesFF: 	23 NOCNCO
chimesFF: 	23 NOCOCN
chimesFF: 	29 NOHNHO
chimesFF: 	29 NOHOHN
chimesFF: 	32 NONNNO
chimesFF: 	32 NONONN
chimesFF: 	33 NONOOO
chimesFF: 	33 NOOONO
chimesFF: 	14 OOAlOAlO
chimesFF: 	24 OOCOCO
chimesFF: 	30 OOHOHO
chimesFF: 	33 OONONO
chimesFF: 	34 OOOOOO
chimesFF: Built the following 3-body pair "fast" map:
chimesFF: 	0 0
chimesFF: 	1 1
chimesFF: 	2 2
chimesFF: 	3 3
chimesFF: 	4 4
chimesFF: 	5 1
chimesFF: 	6 5
chimesFF: 	7 6
chimesFF: 	8 7
chimesFF: 	9 8
chimesFF: 	10 2
chimesFF: 	11 6
chimesFF: 	12 9
chimesFF: 	13 10
chimesFF: 	14 11
chimesFF: 	15 3
chimesFF: 	16 7
chimesFF: 	17 10
chimesFF: 	18 12
chimesFF: 	19 13
chimesFF: 	20 4
chimesFF: 	21 8
chimesFF: 	22 11
chimesFF: 	23 13
chimesFF: 	24 14
chimesFF: 	25 1
chimesFF: 	26 5
chimesFF: 	27 6
chimesFF: 	28 7
chimesFF: 	29 8
chimesFF: 	30 5
chimesFF: 	31 15
chimesFF: 	32 16
chimesFF: 	33 17
chimesFF: 	34 18
chimesFF: 	35 6
chimesFF: 	36 16
chimesFF: 	37 19
chimesFF: 	38 20
chimesFF: 	39 21
chimesFF: 	40 7
chimesFF: 	41 17
chimesFF: 	42 20
chimesFF: 	43 22
chimesFF: 	44 23
chimesFF: 	45 8
chimesFF: 	46 18
chimesFF: 	47 21
chimesFF: 	48 23
chimesFF: 	49 24
chimesFF: 	50 2
chimesFF: 	51 6
chimesFF: 	52 9
chimesFF: 	53 10
chimesFF: 	54 11
chimesFF: 	55 6
chimesFF: 	56 16
chimesFF: 	57 19
chimesFF: 	58 20
chimesFF: 	59 21
chimesFF: 	60 9
chimesFF: 	61 19
chimesFF: 	62 25
chimesFF: 	63 26
chimesFF: 	64 27
chimesFF: 	65 10
chimesFF: 	66 20
chimesFF: 	67 26
chimesFF: 	68 28
chimesFF: 	69 29
chimesFF: 	70 11
chimesFF: 	71 21
chimesFF: 	72 27
chimesFF: 	73 29
chimesFF: 	74 30
chimesFF: 	75 3
chimesFF: 	76 7
chimesFF: 	77 10
chimesFF: 	78 12
chimesFF: 	79 13
chimesFF: 	80 7
chimesFF: 	81 17
chimesFF: 	82 20
chimesFF: 	83 22
chimesFF: 	84 23
chimesFF: 	85 10
chimesFF: 	86 20
chimesFF: 	87 26
chimesFF: 	88 28
chimesFF: 	89 29
chimesFF: 	90 12
chimesFF: 	91 22
chimesFF: 	92 28
chimesFF: 	93 31
chimesFF: 	94 32
chimesFF: 	95 13
chimesFF: 	96 23
chimesFF: 	97 29
chimesFF: 	98 32
chimesFF: 	99 33
chimesFF: 	100 4
chimesFF: 	101 8
chimesFF: 	102 11
chimesFF: 	103 13
chimesFF: 	104 14
chimesFF: 	105 8
chimesFF: 	106 18
chimesFF: 	107 21
chimesFF: 	108 23
chimesFF: 	109 24
chimesFF: 	110 11
chimesFF: 	111 21
chimesFF: 	112 27
chimesFF: 	113 29
chimesFF: 	114 30
chimesFF: 	115 13
chimesFF: 	116 23
chimesFF: 	117 29
chimesFF: 	118 32
chimesFF: 	119 33
chimesFF: 	120 14
chimesFF: 	121 24
chimesFF: 	122 30
chimesFF: 	123 33
chimesFF: 	124 34
chimesFF: Set the following special 3-body outer cutoffs: 
chimesFF: 	0 5.00000 5.00000 5.00000
chimesFF: 	1 5.00000 5.00000 5.00000
chimesFF: 	2 5.00000 5.00000 5.00000
chimesFF: 	3 5.00000 5.00000 5.00000
chimesFF: 	4 5.00000 5.00000 5.00000
chimesFF: 	5 5.00000 5.00000 5.00000
chimesFF: 	6 5.00000 5.00000 5.00000
chimesFF: 	7 5.00000 5.00000 5.00000
chimesFF: 	8 5.00000 5.00000 5.00000
chimesFF: 	9 5.00000 5.00000 5.00000
chimesFF: 	10 5.00000 5.00000 5.00000
chimesFF: 	11 5.00000 5.00000 5.00000
chimesFF: 	12 5.00000 5.00000 5.00000
chimesFF: 	13 5.00000 5.00000 5.00000
chimesFF: 	14 5.00000 5.00000 5.00000
chimesFF: 	15 5.00000 5.00000 5.00000
chimesFF: 	16 5.00000 5.00000 5.00000
chimesFF: 	17 5.00000 5.00000 5.00000
chimesFF: 	18 5.00000 5.00000 5.00000
chimesFF: 	19 5.00000 5.00000 5.00000
chimesFF: 	20 5.00000 5.00000 5.00000
chimesFF: 	21 5.00000 5.00000 5.00000
chimesFF: 	22 5.00000 5.00000 5.00000
chimesFF: 	23 5.00000 5.00000 5.00000
chimesFF: 	24 5.00000 5.00000 5.00000
chimesFF: 	25 5.00000 5.00000 5.00000
chimesFF: 	26 5.00000 5.00000 5.00000
chimesFF: 	27 5.00000 5.00000 5.00000
chimesFF: 	28 5.00000 5.00000 5.00000
chimesFF: 	29 5.00000 5.00000 5.00000
chimesFF: 	30 5.00000 5.00000 5.00000
chimesFF: 	31 5.00000 5.00000 5.00000
chimesFF: 	32 5.00000 5.00000 5.00000
chimesFF: 	33 5.00000 5.00000 5.00000
chimesFF: 	34 5.00000 5.00000 5.00000
chimesFF: 	Setting 3-body max cutoff to: 5.00000
Neighbor list info ...
  update every 1 steps, delay 0 steps, check no
  max neighbors/atom: 10000, page size: 100000
  master list distance cutoff = 7
  ghost atom cutoff = 7
  binsize = 3.5, bins = 4 4 4
  1 neighbor lists, perpetual/occasional/extra = 1 0 0
  (1) pair chimesFF, perpetual
      attributes: full, newton on, ghost
      pair build: full/bin/ghost
      stencil: full/ghost/bin/3d
      bin: standard
Setting up Verlet run ...
  Unit style    : real
  Current step  : 0
  Time step     : 0.1
Updating chimesFF neighbor lists...
	Rank 0 3-body list size: 2719
	Rank 0 4-body list size: 0
	...update complete
Per MPI rank memory allocation (min/avg/max) = 3.848 | 3.848 | 3.849 Mbytes
Time Step Temp TotEng PotEng KinEng Press Volume Density Enthalpy Pxx Pyy Pzz Lx Ly Lz 
                   0        0                  300    -21426.5503116559    -21597.3507275209        170.800415865     24707.8807835629     1828.49725331279     1.04705377649576    -20767.6712614704      25103.918785297     27917.9637360431     21101.7598293487            12.228263            12.228263            12.228263 
Updating chimesFF neighbor lists...
	Rank 0 3-body list size: 2749
	Rank 0 4-body list size: 0
	...update complete
                 0.1        1     299.393755835815    -21426.5500019706    -21597.0052619844     170.455260013805     24840.4507542486     1828.49725331279     1.04705377649576    -20764.1357406056     25141.5055350598     27972.1953440906     21407.6513835955            12.228263            12.228263            12.228263 
Updating chimesFF neighbor lists...
	Rank 0 3-body list size: 2750
	Rank 0 4-body list size: 0
	...update complete
                 0.2        2     298.764560823263    -21426.5496825567    -21596.6467200045     170.097037447791     24918.8570987633     1828.49725331279     1.04705377649576    -20762.0445782637     25130.5255792525     27957.6230061755     21668.4227108618            12.228263            12.228263            12.228263 
Updating chimesFF neighbor lists...
	Rank 0 3-body list size: 2750
	Rank 0 4-body list size: 0
	...update complete
                 0.3        3     298.121934330025     -21426.549360724    -21596.2805285975     169.731167873488     24942.4412353191     1828.49725331279     1.04705377649576    -20761.4153439949     25069.8565159987     27874.5901693129     21882.8770206456            12.228263            12.228263            12.228263 
Updating chimesFF neighbor lists...
	Rank 0 3-body list size: 2750
	Rank 0 4-body list size: 0
	...update complete
                 0.4        4     297.475316282243    -21426.5490457329    -21595.9120715015     169.363025768598     24910.9544301715     1828.49725331279     1.04705377649576     -20762.254679982     24958.5463414783     27724.1517417299     22050.1652073063            12.228263            12.228263            12.228263 
Updating chimesFF neighbor lists...
	Rank 0 3-body list size: 2750
	Rank 0 4-body list size: 0
	...update complete
                 0.5        5     296.833814001418    -21426.5487475933    -21595.5465438407     168.997796247454     24824.4559463361     1828.49725331279     1.04705377649576    -20764.5610158824     24796.5598210773     27507.1090042716     22169.6990136595            12.228263            12.228263            12.228263 
Updating chimesFF neighbor lists...
	Rank 0 3-body list size: 2741
	Rank 0 4-body list size: 0
	...update complete
                 0.6        6     296.205909554438    -21426.5484746716    -21595.1887831168     168.640308445228     24683.0728634436     1828.49725331279     1.04705377649576    -20768.3309712609     24583.1502155732     27225.1060811222     22240.9622936354            12.228263            12.228263            12.228263 
Updating chimesFF neighbor lists...
	Rank 0 3-body list size: 2740
	Rank 0 4-body list size: 0
	...update complete
                 0.7        7     295.599175767691    -21426.5482373986    -21594.8431112335     168.294873834909     24487.3851804164     1828.49725331279     1.04705377649576    -20773.5490898581     24318.4219828309     26880.2922446553     22263.4413137629            12.228263            12.228263            12.228263 
Updating chimesFF neighbor lists...
	Rank 0 3-body list size: 2739
	Rank 0 4-body list size: 0
	...update complete
                 0.8        8     295.020015966565    -21426.5480436113    -21594.5131816632     167.965138051961     24237.9727754875     1828.49725331279     1.04705377649576     -20780.199916039     24002.5340346045     26474.4233702951     22236.9609215627            12.228263            12.228263            12.228263 
Updating chimesFF neighbor lists...
	Rank 0 3-body list size: 2738
	Rank 0 4-body list size: 0
	...update complete
                 0.9        9     294.473426968527    -21426.5479006885    -21594.2018466466     167.653945958053     23935.7247142714     1828.49725331279     1.04705377649576    -20788.2597486859     23635.5027938331      26009.904837558     22161.7665114229            12.228263            12.228263            12.228263 
Updating chimesFF neighbor lists...
	Rank 0 3-body list size: 2738
	Rank 0 4-body list size: 0
	...update complete
                   1       10     293.962829929017    -21426.5478073613     -21593.911052697     167.363245335761     23581.8736734319     1828.49725331279     1.04705377649576    -20797.6957150409     23218.1428385252     25489.5124324367     22037.9657493339            12.228263            12.228263            12.228263 
Updating chimesFF neighbor lists...
	Rank 0 3-body list size: 2738
	Rank 0 4-body list size: 0
	...update complete
                 1.1       11      293.48998368655      -21426.54776739    -21593.6418049429     167.094037552916     23178.0307694702     1828.49725331279     1.04705377649576    -20808.4648556123     22751.5326078981      24916.627054517     21865.9326459955            12.228263            12.228263            12.228263 
Updating chimesFF neighbor lists...
	Rank 0 3-body list size: 2739
	Rank 0 4-body list size: 0
	...update complete
                 1.2       12     293.054946405013     -21426.547777713    -21593.3941334373     166.846355724238     22725.6752394049     1828.49725331279     1.04705377649576    -20820.5277208847     22236.8885180494     24294.1407931467     21645.9964070187            12.228263            12.228263            12.228263 
Updating chimesFF neighbor lists...
	Rank 0 3-body list size: 2740
	Rank 0 4-body list size: 0
	...update complete
                 1.3       13     292.656129093591    -21426.5478319446    -21593.1671271267     166.619295182088      22226.944639051     1828.49725331279     1.04705377649576    -20833.8273027908     21676.0646560668      23625.776028023      21378.993233063            12.228263            12.228263            12.228263 
Updating chimesFF neighbor lists...
	Rank 0 3-body list size: 2740
	Rank 0 4-body list size: 0
	...update complete
                 1.4       14      292.29042938128    -21426.5479231364    -21592.9590127754      166.41108963894     21684.1312843625     1828.49725331279     1.04705377649576    -20848.3024657501     21070.9208927259     22915.2120717742     21066.2608885872            12.228263            12.228263            12.228263 
Updating chimesFF neighbor lists...
	Rank 0 3-body list size: 2739
	Rank 0 4-body list size: 0
	...update complete
                 1.5       15     291.953439342605    -21426.5480388462     -21592.767268356      166.21922950978     21099.4932405162     1828.49725331279     1.04705377649576    -20863.8929820453     20423.2243500531     22166.3118448093     20708.9435266861            12.228263            12.228263            12.228263 
Updating chimesFF neighbor lists...
	Rank 0 3-body list size: 2740
	Rank 0 4-body list size: 0
	...update complete
                 1.6       16      291.63973429687     -21426.548168178    -21592.5887945136     166.040626335545     20475.8762776785     1828.49725331279     1.04705377649576    -20880.5229533191     19735.5781688548     21383.6179450223     20308.4327191583            12.228263            12.228263            12.228263 
Updating chimesFF neighbor lists...
	Rank 0 3-body list size: 2740
	Rank 0 4-body list size: 0
	...update complete
                 1.7       17     291.343173391054    -21426.5482988414    -21592.4200827568     165.871783915403     19815.8162787419     1828.49725331279     1.04705377649576    -20898.1247435087       19010.43688092     20571.0778860517      19865.934069254            12.228263            12.228263            12.228263 
Updating chimesFF neighbor lists...
	Rank 0 3-body list size: 3221
	Rank 0 4-body list size: 0
	...update complete
                 1.8       18     291.057236772031    -21426.5484165135    -21592.2574067841     165.708990270602     19122.7342310703     1828.49725331279     1.04705377649576    -20916.6071116526      18251.276469925     19733.5140444167     19383.4121788692            12.228263            12.228263            12.228263 
Updating chimesFF neighbor lists...
	Rank 0 3-body list size: 3221
	Rank 0 4-body list size: 0
	...update complete
                 1.9       19     290.775365702663    -21426.5485083675    -21592.0970196519     165.548511284374     18399.7340762312     1828.49725331279     1.04705377649576     -20935.887272869     17460.8208082387     18875.0522270959     18863.3291933591            12.228263            12.228263            12.228263 
Updating chimesFF neighbor lists...
	Rank 0 3-body list size: 3220
	Rank 0 4-body list size: 0
	...update complete
                   2       20     290.491283086154    -21426.5485646684     -21591.935337856     165.386773187575     17649.7667479203     1828.49725331279     1.04705377649576    -20955.8865255914     16641.9635964445     17999.8906982821     18307.4459490342            12.228263            12.228263            12.228263 
Updating chimesFF neighbor lists...
	Rank 0 3-body list size: 3219
	Rank 0 4-body list size: 0
	...update complete
                 2.1       21     290.199293248477    -21426.5485742756    -21591.7691075108      165.22053323523     16876.1426388349     1828.49725331279     1.04705377649576    -20976.5165812417     15797.9109706667     17112.4490191359     17718.0679267021            12.228263            12.228263            12.228263 
Updating chimesFF neighbor lists...
	Rank 0 3-body list size: 3219
	Rank 0 4-body list size: 0
	...update complete
                 2.2       22     289.894512313099    -21426.5485348216    -21591.5955456885     165.047010866862     16082.2446407093     1828.49725331279     1.04705377649576    -20997.6872267012     14931.9372932108     16216.9889997579     17097.8076291592            12.228263            12.228263            12.228263 
Updating chimesFF neighbor lists...
	Rank 0 3-body list size: 3240
	Rank 0 4-body list size: 0
	...update complete
                 2.3       23     289.573040180118    -21426.5484375935    -21591.4124232137     164.863985620188     15271.4833350692     1828.49725331279     1.04705377649576    -21019.3075041086     14047.2839934335     15317.8188873279     16449.3471244463            12.228263            12.228263            12.228263 
Updating chimesFF neighbor lists...
	Rank 0 3-body list size: 3239
	Rank 0 4-body list size: 0
	...update complete
                 2.4       24      289.23208230843    -21426.5482829257    -21591.2181493916     164.669866465933     14447.2578510189     1828.49725331279     1.04705377649576    -21041.2867700485      13147.438095954     14418.8855302932     15775.4499268096            12.228263            12.228263            12.228263 
Updating chimesFF neighbor lists...
	Rank 0 3-body list size: 3240
	Rank 0 4-body list size: 0
	...update complete
                 2.5       25     288.870002757716    -21426.5480710493    -21591.0117930558     164.463722006472     13613.2242654554     1828.49725331279     1.04705377649576    -21063.5275290386     12236.1618393043     13524.4726633383     15079.0382937235            12.228263            12.228263            12.228263 
Updating chimesFF neighbor lists...
	Rank 0 3-body list size: 3240
	Rank 0 4-body list size: 0
	...update complete
                 2.6       26     288.486333304452    -21426.5478012463    -21590.7930869121     164.245285665898     12772.9568038946     1828.49725331279     1.04705377649576    -21085.9344673577     11316.8070121092     12638.6527268612     14363.4106727133            12.228263            12.228263            12.228263 
Updating chimesFF neighbor lists...
	Rank 0 3-body list size: 3242
	Rank 0 4-body list size: 0
	...update complete
                 2.7       27     288.081715551074    -21426.5474806714    -21590.5624034021     164.014922730754     11930.3709995222     1828.49725331279     1.04705377649576    -21108.4031775891     10393.6651272568     11765.6713295732     13631.7765417367            12.228263            12.228263            12.228263 
Updating chimesFF neighbor lists...
	Rank 0 3-body list size: 3242
	Rank 0 4-body list size: 0
	...update complete
                 2.8       28     287.657778048414    -21426.5471165928    -21590.3206769844      163.77356039157     11089.1146107283     1828.49725331279     1.04705377649576    -21130.8363931148     9470.36724983896     10909.3531432783     12887.6234390676            12.228263            12.228263            12.228263 
Updating chimesFF neighbor lists...
	Rank 0 3-body list size: 3244
	Rank 0 4-body list size: 0
	...update complete
                 2.9       29     287.216981739458     -21426.546710475    -21590.0693102236     163.522599748632     10252.8942731159     1828.49725331279     1.04705377649576    -21153.1352714487     8551.07504914958     10073.2881554723     12134.3196147257            12.228263            12.228263            12.228263 
Updating chimesFF neighbor lists...
	Rank 0 3-body list size: 3244
	Rank 0 4-body list size: 0
	...update complete
                   3       30     286.762444980672    -21426.5462732406    -21589.8100894312     163.263816190543     9424.56200579532     1828.49725331279     1.04705377649576    -21175.2237694133     7638.79806702414     9260.20691162548     11374.6810387363            12.228263            12.228263            12.228263 
Updating chimesFF neighbor lists...
	Rank 0 3-body list size: 3244
	Rank 0 4-body list size: 0
	...update complete
                 3.1       31      286.29775824003     -21426.545811863    -21589.5450657584     162.999253895381     8607.93618266682     1828.49725331279     1.04705377649576    -21197.0000703332     6737.40598974097     8473.53371934659     10612.8688389129            12.228263            12.228263            12.228263 
Updating chimesFF neighbor lists...
	Rank 0 3-body list size: 3254
	Rank 0 4-body list size: 0
	...update complete
                 3.2       32     285.826760782385    -21426.5453337192    -21589.2764324091     162.731098689924     7806.56686719733     1828.49725331279     1.04705377649576    -21218.3695129061     5851.00247577352     7716.58579936319     9852.11232645528            12.228263            12.228263            12.228263 
Updating chimesFF neighbor lists...
	Rank 0 3-body list size: 3253
	Rank 0 4-body list size: 0
	...update complete
                 3.3       33      285.35332404859    -21426.5448480389    -21589.0064027588     162.461554719864     7023.91268493383     1828.49725331279     1.04705377649576    -21239.2398760353     4983.61091242288     6992.29243456154     9095.83470781705            12.228263            12.228263            12.228263 
Updating chimesFF neighbor lists...
	Rank 0 3-body list size: 3254
	Rank 0 4-body list size: 0
	...update complete
                 3.4       34     284.881152330414     -21426.544360084    -21588.7370910512     162.192730967117     6263.37175209031     1828.49725331279     1.04705377649576    -21259.5205482434     4139.05459757632     6303.53830444297     8347.52235425165            12.228263            12.228263            12.228263 
Updating chimesFF neighbor lists...
	Rank 0 3-body list size: 3251
	Rank 0 4-body list size: 0
	...update complete
                 3.5       35     284.413593144798    -21426.5438769307      -21588.47041022     161.926533289301     5528.17291568318     1828.49725331279     1.04705377649576    -21279.1254337281     3321.15085781145     5652.96974573056     7610.39814350753            12.228263            12.228263            12.228263 
Updating chimesFF neighbor lists...
	Rank 0 3-body list size: 3276
	Rank 0 4-body list size: 0
	...update complete
                 3.6       36     283.953480457483    -21426.5434013752    -21588.2079765367     161.664575161508     4821.29675907112     1828.49725331279     1.04705377649576    -21297.9750527942     2533.58548839878     5042.68976913054     6887.61501968403            12.228263            12.228263            12.228263 
Updating chimesFF neighbor lists...
	Rank 0 3-body list size: 3278
	Rank 0 4-body list size: 0
	...update complete
                 3.7       37     283.503014670643    -21426.5429372731    -21587.9510466221      161.40810934909     4145.96740314982     1828.49725331279     1.04705377649576    -21315.9834324488      1780.1568227477     4475.05392767774     6182.69145902403            12.228263            12.228263            12.228263 
Updating chimesFF neighbor lists...
	Rank 0 3-body list size: 3278
	Rank 0 4-body list size: 0
	...update complete
                 3.8       38     283.063685086793    -21426.5424849333     -21587.700468697     161.157983763679     3505.44002383792     1828.49725331279     1.04705377649576    -21333.0637680162     1064.69104529722     3952.59051551478     5499.03851070177            12.228263            12.228263            12.228263 
Updating chimesFF neighbor lists...
	Rank 0 3-body list size: 3275
	Rank 0 4-body list size: 0
	...update complete
                 3.9       39     282.636221179499    -21426.5420459299    -21587.4566596498     160.914613719902     2902.54613366892     1828.49725331279     1.04705377649576    -21349.1405538139     390.760690844592     3477.42730505859     4839.45040510356            12.228263            12.228263            12.228263 
Updating chimesFF neighbor lists...
	Rank 0 3-body list size: 3247
	Rank 0 4-body list size: 0
	...update complete
                   4       40     282.220580106191    -21426.5416168576    -21587.2195916836     160.677974825997     2340.33650077321     1828.49725331279     1.04705377649576    -21364.1324323447    -237.502922219659     3051.14899913733     4207.36342540197            12.228263            12.228263            12.228263 
Updating chimesFF neighbor lists...
	Rank 0 3-body list size: 3249
	Rank 0 4-body list size: 0
	...update complete
                 4.1       41     281.815957922571    -21426.5412011622    -21586.9888105307     160.447609368562       1820.666510409     1828.49725331279     1.04705377649576    -21377.9899299467    -817.840490989442     2674.90086310804     3604.93915910841            12.228263            12.228263            12.228263 
Updating chimesFF neighbor lists...
	Rank 0 3-body list size: 3249
	Rank 0 4-body list size: 0
	...update complete
                 4.2       42     281.420827947613    -21426.5407900049      -21586.76343816     160.222648155083     1345.68486299487     1828.49725331279     1.04705377649576    -21390.6557389094    -1347.41471059683     2349.71750676169     3034.75179281975            12.228263            12.228263            12.228263 
Updating chimesFF neighbor lists...
	Rank 0 3-body list size: 3249
	Rank 0 4-body list size: 0
	...update complete
                 4.3       43     281.033057185429    -21426.5403827289    -21586.5422595258     160.001876796946      917.46661054287     1828.49725331279     1.04705377649576    -21402.0745236685    -1824.12369728042     2076.98441771215     2499.53911119688            12.228263            12.228263            12.228263 
Updating chimesFF neighbor lists...
	Rank 0 3-body list size: 3278
	Rank 0 4-body list size: 0
	...update complete
                 4.4       44     280.650024891049    -21426.5399704347    -21586.3237736477     159.783803213046     537.494304164412     1828.49725331279     1.04705377649576    -21412.2067404944    -2245.89926897488     1857.49194647469     2000.89023499343            12.228263            12.228263            12.228263 
Updating chimesFF neighbor lists...
	Rank 0 3-body list size: 3281
	Rank 0 4-body list size: 0
	...update complete
                 4.5       45     280.268740214388    -21426.5395496313    -21586.1062742399      159.56672460859     207.666106377869     1828.49725331279     1.04705377649576    -21421.0017680577      -2610.212930243     1692.37739599621     1540.83385338039            12.228263            12.228263            12.228263 
Updating chimesFF neighbor lists...
	Rank 0 3-body list size: 3280
	Rank 0 4-body list size: 0
	...update complete
                 4.6       46     279.886028890133    -21426.5391095714    -21585.8879433355     159.348833764127    -70.6107335102855     1828.49725331279     1.04705377649576    -21428.4220688359    -2915.13572061992     1582.27876284588     1121.02475724319            12.228263            12.228263            12.228263 
Updating chimesFF neighbor lists...
	Rank 0 3-body list size: 3280
	Rank 0 4-body list size: 0
	...update complete
                 4.7       47      279.49871702064    -21426.5386477743    -21585.6669714438     159.128323669531    -295.830592423725     1828.49725331279     1.04705377649576    -21434.4274902638    -3159.18921147185     1528.40176922079     743.295664979883            12.228263            12.228263            12.228263 
Updating chimesFF neighbor lists...
	Rank 0 3-body list size: 3280
	Rank 0 4-body list size: 0
	...update complete
                 4.8       48     279.103783706081    -21426.5381555176    -21585.4416299392     158.903474421645    -467.245822372876     1828.49725331279     1.04705377649576    -21438.9980862718    -3341.40876411111      1530.7305985357     408.940698456779            12.228263            12.228263            12.228263 
Updating chimesFF neighbor lists...
	Rank 0 3-body list size: 3280
	Rank 0 4-body list size: 0
	...update complete
                 4.9       49     278.698528151352    -21426.5376278614    -21585.2103762255     158.672748364048    -584.264732678699     1828.49725331279     1.04705377649576    -21442.1180734487    -3461.28223277734     1589.38204636889     119.105988372357            12.228263            12.228263            12.228263 
Updating chimesFF neighbor lists...
	Rank 0 3-body list size: 3281
	Rank 0 4-body list size: 0
	...update complete
                   5       50     278.280736948178    -21426.5370581455    -21584.9719434721     158.434885326558    -646.295753644707     1828.49725331279     1.04705377649576    -21443.7716698886    -3518.05558779196     1704.53235035987    -125.364023502036            12.228263            12.228263            12.228263 
Updating chimesFF neighbor lists...
	Rank 0 3-body list size: 3282
	Rank 0 4-body list size: 0
	...update complete
[...]
Updating chimesFF neighbor lists...
	Rank 0 3-body list size: 2802
	Rank 0 4-body list size: 0
	...update complete
                45.9      459     303.582416740794    -21426.2860873791    -21599.1260974745     172.840010095431     19734.8431041427     1828.49725331279     1.04705377649576    -20900.0218240082     13333.4489550673     26465.5550087077     19405.5253486531            12.228263            12.228263            12.228263 
Updating chimesFF neighbor lists...
	Rank 0 3-body list size: 2803
	Rank 0 4-body list size: 0
	...update complete
                  46      460     304.080743526566    -21426.2882223795    -21599.4119472158     173.123724836253     20116.8310603333     1828.49725331279     1.04705377649576     -20889.837579045     13950.1075426874     26707.3700282563     19693.0156100562            12.228263            12.228263            12.228263 
Updating chimesFF neighbor lists...
	Rank 0 3-body list size: 2829
	Rank 0 4-body list size: 0
	...update complete
                46.1      461     304.674130748449    -21426.2904273157    -21599.7519880995     173.461560783808     20479.2731012518     1828.49725331279     1.04705377649576    -20880.1746301884       14560.96034881     26904.3868231874     19972.4721317581            12.228263            12.228263            12.228263 
Updating chimesFF neighbor lists...
	Rank 0 3-body list size: 2827
	Rank 0 4-body list size: 0
	...update complete
                46.2      462     305.349516099096    -21426.2926897869    -21600.1387708999     173.846081113007     20820.8969970068     1828.49725331279     1.04705377649576    -20871.0668912828     15162.8986765206     27056.7618580649     20243.0304564348            12.228263            12.228263            12.228263 
Updating chimesFF neighbor lists...
	Rank 0 3-body list size: 2827
	Rank 0 4-body list size: 0
	...update complete
                46.3      463     306.092405338319    -21426.2949943624    -21600.5640281121     174.269033749677     21140.1794714442     1828.49725331279     1.04705377649576    -20862.5549677324     15752.6496088325      27164.771431058     20503.1173744422            12.228263            12.228263            12.228263 
Updating chimesFF neighbor lists...
	Rank 0 3-body list size: 2828
	Rank 0 4-body list size: 0
	...update complete
                46.4      464     306.887298663334    -21426.2973246292    -21601.0189187471     174.721594117946     21436.3093721079     1828.49725331279     1.04705377649576    -20854.6604739296     16327.7737594232     27229.3061038273     20751.8482530732            12.228263            12.228263            12.228263 
Updating chimesFF neighbor lists...
	Rank 0 3-body list size: 2828
	Rank 0 4-body list size: 0
	...update complete
                46.5      465     307.718122297804    -21426.2996739005    -21601.4942847594     175.194610858873     21708.6510179255     1828.49725331279     1.04705377649576    -20847.4003547402     16885.8443873925       27251.72771102     20988.3809553641            12.228263            12.228263            12.228263 
Updating chimesFF neighbor lists...
	Rank 0 3-body list size: 2828
	Rank 0 4-body list size: 0
	...update complete
                46.6      466     308.568600118912    -21426.3020264111    -21601.9808438218     175.678817410637     21956.1528018272     1828.49725331279     1.04705377649576     -20840.802637349      17424.003259912     27233.0503956919     21211.4047498777            12.228263            12.228263            12.228263 
Updating chimesFF neighbor lists...
	Rank 0 3-body list size: 2828
	Rank 0 4-body list size: 0
	...update complete
                46.7      467      309.42262835572    -21426.3043707163    -21602.4694160536     176.165045337328     22178.2279305082     1828.49725331279     1.04705377649576    -20834.8829581858     17939.8518376626     27174.4418831492     21420.3900707129            12.228263            12.228263            12.228263 
Updating chimesFF neighbor lists...
	Rank 0 3-body list size: 2828
	Rank 0 4-body list size: 0
	...update complete
                46.8      468     310.264654741464    -21426.3066966819    -21602.9511368754     176.644440193509     22374.3691068082     1828.49725331279     1.04705377649576    -20829.6548350863     18430.8144936281     27077.6412071614     21614.6516196352            12.228263            12.228263            12.228263 
Updating chimesFF neighbor lists...
	Rank 0 3-body list size: 2828
	Rank 0 4-body list size: 0
	...update complete
                46.9      469     311.079982650629    -21426.3089974237    -21603.4176321037     177.108634680015     22543.8480220982     1828.49725331279     1.04705377649576    -20825.1376827957      18894.564711663      26943.860919691     21793.1184349406            12.228263            12.228263            12.228263 
Updating chimesFF neighbor lists...
	Rank 0 3-body list size: 2828
	Rank 0 4-body list size: 0
	...update complete
                  47      470     311.855018919859    -21426.3112675734    -21603.8611573104     177.549889736998     22686.2787627968     1828.49725331279     1.04705377649576    -20821.3417870091     19329.1235051237     26774.8703837241     21954.8423995424            12.228263            12.228263            12.228263 
Updating chimesFF neighbor lists...
	Rank 0 3-body list size: 2828
	Rank 0 4-body list size: 0
	...update complete
                47.1      471     312.577479225529     -21426.313498803    -21604.2747102755     177.961211472512     22801.7999726683     1828.49725331279     1.04705377649576    -20818.2634422192     19733.0457233652     26573.0513215794     22099.3028730604            12.228263            12.228263            12.228263 
Updating chimesFF neighbor lists...
	Rank 0 3-body list size: 2828
	Rank 0 4-body list size: 0
	...update complete
                47.2      472     313.236549412414    -21426.3156953094     -21604.652138322     178.336443012527     22889.8987856031     1828.49725331279     1.04705377649576    -20815.9163290986     20104.6932244885      26339.629318382     22225.3738139387            12.228263            12.228263            12.228263 
Updating chimesFF neighbor lists...
	Rank 0 3-body list size: 2829
	Rank 0 4-body list size: 0
	...update complete
                47.3      473     313.822966437237    -21426.3178532208    -21604.9881638057     178.670310584893     22950.4123263137     1828.49725331279     1.04705377649576    -20814.3047871311     20442.3968775646     26076.5765399335     22332.2635614431            12.228263            12.228263            12.228263 
Updating chimesFF neighbor lists...
	Rank 0 3-body list size: 2829
	Rank 0 4-body list size: 0
	...update complete
                47.4      474     314.329060759682    -21426.3199735053    -21605.2784211594     178.958447654029     22983.1028846989     1828.49725331279     1.04705377649576    -20813.4351562425     20744.4916415232     25785.6035321908     22419.2134803826            12.228263            12.228263            12.228263 
Updating chimesFF neighbor lists...
	Rank 0 3-body list size: 2833
	Rank 0 4-body list size: 0
	...update complete
                47.5      475     314.748791156371    -21426.3220559846    -21605.5194707264     179.197414741714     22988.6730321793     1828.49725331279     1.04705377649576    -20813.2887009531     21010.6054495052     25469.0887254531     22486.3249215796            12.228263            12.228263            12.228263 
Updating chimesFF neighbor lists...
	Rank 0 3-body list size: 2831
	Rank 0 4-body list size: 0
	...update complete
                47.6      476     315.077705879855     -21426.324107564    -21605.7087848776     179.384677313565      22967.067645482     1828.49725331279     1.04705377649576    -20813.8668981271     21239.9204591872     25128.6449477433     22532.6375295156            12.228263            12.228263            12.228263 
Updating chimesFF neighbor lists...
	Rank 0 3-body list size: 2832
	Rank 0 4-body list size: 0
	...update complete
                47.7      477     315.312873865258    -21426.3261269385    -21605.8446935511     179.518566612581     22918.1295441762     1828.49725331279     1.04705377649576    -20815.1739379519     21431.1482151527     24765.5869459664     22557.6534714096            12.228263            12.228263            12.228263 
Updating chimesFF neighbor lists...
	Rank 0 3-body list size: 2835
	Rank 0 4-body list size: 0
	...update complete
                47.8      478     315.452827215965    -21426.3281190329    -21605.9263659471     179.598246914256     22842.1444797341     1828.49725331279     1.04705377649576    -20817.2022052872     21583.5988676627      24381.666463578     22561.1681079615            12.228263            12.228263            12.228263 
Updating chimesFF neighbor lists...
	Rank 0 3-body list size: 2798
	Rank 0 4-body list size: 0
	...update complete
                47.9      479     315.497491335776    -21426.3300839731    -21605.9537597215     179.623675748382      22739.981083787     1828.49725331279     1.04705377649576    -20819.9285366704     21697.8545410542     23979.0611722442     22543.0275380626            12.228263            12.228263            12.228263 
Updating chimesFF neighbor lists...
	Rank 0 3-body list size: 2798
	Rank 0 4-body list size: 0
	...update complete
                  48      480     315.448116180938    -21426.3320271168    -21605.9275918752      179.59556475845     22611.6315273328     1828.49725331279     1.04705377649576    -20823.3531462334     21773.0471160058     23559.1929649554     22502.6545010373            12.228263            12.228263            12.228263 
Updating chimesFF neighbor lists...
	Rank 0 3-body list size: 2799
	Rank 0 4-body list size: 0
	...update complete
                48.1      481     315.307187599102    -21426.3339510701    -21605.8492802939     179.515329223834     22457.8952706227     1828.49725331279     1.04705377649576    -20827.4547175699     21808.9888245572     23124.2929635115     22440.4040237995            12.228263            12.228263            12.228263 
Updating chimesFF neighbor lists...
	Rank 0 3-body list size: 2799
	Rank 0 4-body list size: 0
	...update complete
                48.2      482     315.078350974865    -21426.3358540457    -21605.7208986343     179.385044588551     22279.2248677825     1828.49725331279     1.04705377649576     -20832.221180742      21806.417484927     22675.4584422442     22355.7986761764            12.228263            12.228263            12.228263 
Updating chimesFF neighbor lists...
	Rank 0 3-body list size: 2799
	Rank 0 4-body list size: 0
	...update complete
                48.3      483     314.766368559655    -21426.3377389426    -21605.5451611103     179.207422167683      22076.032453589     1828.49725331279     1.04705377649576    -20837.6415483506      21765.378882219     22214.0737673258     22248.6447112224            12.228263            12.228263            12.228263 
Updating chimesFF neighbor lists...
	Rank 0 3-body list size: 2799
	Rank 0 4-body list size: 0
	...update complete
                48.4      484     314.377050765995    -21426.3396070868    -21605.3253771176     178.985770030814     21849.1278657036     1828.49725331279     1.04705377649576    -20843.6942259778     21686.6796830224     21741.7629519256     22118.9409621628            12.228263            12.228263            12.228263 
Updating chimesFF neighbor lists...
	Rank 0 3-body list size: 2778
	Rank 0 4-body list size: 0
	...update complete
                48.5      485     313.917201258371    -21426.3414576033    -21605.0654193437     178.723961740355     21599.4855772445     1828.49725331279     1.04705377649576    -20850.3532267107     21571.0171217418     21259.7598962838     21967.6797137079            12.228263            12.228263            12.228263 
Updating chimesFF neighbor lists...
	Rank 0 3-body list size: 2792
	Rank 0 4-body list size: 0
	...update complete
                48.6      486     313.394548408543     -21426.343295199    -21604.7696925257     178.426397326677      21328.032000228     1828.49725331279     1.04705377649576    -20857.5938508523     21419.0518586757     20770.0566242585     21794.9875177498            12.228263            12.228263            12.228263 
Updating chimesFF neighbor lists...
	Rank 0 3-body list size: 2795
	Rank 0 4-body list size: 0
	...update complete
                48.7      487     312.817653849311    -21426.3451211597    -21604.4430723842     178.097951224587     21035.5642024839     1828.49725331279     1.04705377649576    -20865.3948444743     21232.0662672452     20273.5128501373     21601.1134900691            12.228263            12.228263            12.228263 
Updating chimesFF neighbor lists...
	Rank 0 3-body list size: 2795
	Rank 0 4-body list size: 0
	...update complete
                48.8      488     312.195827256955    -21426.3469364571    -21604.0908602131     177.743923756019     20722.8663209051     1828.49725331279     1.04705377649576    -20873.7352981606     21011.5633290418     19771.0056437838     21386.0299898897            12.228263            12.228263            12.228263 
Updating chimesFF neighbor lists...
	Rank 0 3-body list size: 2794
	Rank 0 4-body list size: 0
	...update complete
                48.9      489     311.539033995356    -21426.3487449446    -21603.7187334932     177.369988548624     20390.7770146353     1828.49725331279     1.04705377649576     -20882.592851445     20758.8188461438     19263.3199735927     21150.1922241693            12.228263            12.228263            12.228263 
Updating chimesFF neighbor lists...
	Rank 0 3-body list size: 2793
	Rank 0 4-body list size: 0
	...update complete
                  49      490     310.857755352439    -21426.3505528071    -21603.3326657706     176.982112963523     20039.9917298092     1828.49725331279     1.04705377649576    -20891.9489652194     20474.5614614518     18751.3668794618     20894.0468485139            12.228263            12.228263            12.228263 
Updating chimesFF neighbor lists...
	Rank 0 3-body list size: 2793
	Rank 0 4-body list size: 0
	...update complete
                49.1      491     310.162819063918    -21426.3523638739    -21602.9388254805     176.586461606593     19671.7318380889     1828.49725331279     1.04705377649576    -20901.7710732921     20160.5360676745     18236.4482552002     20618.2111913919            12.228263            12.228263            12.228263 
Updating chimesFF neighbor lists...
	Rank 0 3-body list size: 2795
	Rank 0 4-body list size: 0
	...update complete
                49.2      492     309.465235337491    -21426.3541835382    -21602.5434865095     176.189302971345     19287.4492070641     1828.49725331279     1.04705377649576    -20912.0204644559      19818.608086178     17720.0403695434     20323.6991654709            12.228263            12.228263            12.228263 
Updating chimesFF neighbor lists...
	Rank 0 3-body list size: 2797
	Rank 0 4-body list size: 0
	...update complete
                49.3      493     308.776024727339    -21426.3560179683    -21602.1529294102     175.796911441903     18888.2874699017     1828.49725331279     1.04705377649576    -20922.6666478917     19450.5106016935     17202.9058986596      20011.445909352            12.228263            12.228263            12.228263 
Updating chimesFF neighbor lists...
	Rank 0 3-body list size: 2797
	Rank 0 4-body list size: 0
	...update complete
                49.4      494     308.105995437343    -21426.3578763713    -21601.7733168753     175.415440503993     18475.9897500609     1828.49725331279     1.04705377649576    -20933.6631493571     19058.7152100346     16686.5582066631      19682.695833485            12.228263            12.228263            12.228263 
Updating chimesFF neighbor lists...
	Rank 0 3-body list size: 2797
	Rank 0 4-body list size: 0
	...update complete
                49.5      495     307.465521482348     -21426.359762382    -21601.4105588264     175.050796444447     18051.2721166173     1828.49725331279     1.04705377649576    -20944.9908772468     18644.3487612106     16171.2819620104     19338.1856266309            12.228263            12.228263            12.228263 
Updating chimesFF neighbor lists...
	Rank 0 3-body list size: 2798
	Rank 0 4-body list size: 0
	...update complete
                49.6      496     306.864358582126    -21426.3616861554    -21601.0702196886     174.708533533245     17615.6862462911     1828.49725331279     1.04705377649576      -20956.60846353     18209.3748552831     15658.5994825695     18979.0844010207            12.228263            12.228263            12.228263 
Updating chimesFF neighbor lists...
	Rank 0 3-body list size: 2797
	Rank 0 4-body list size: 0
	...update complete
                49.7      497     306.311442958101    -21426.3636474698    -21600.7573869413     174.393739471506     17170.7152327332     1828.49725331279     1.04705377649576    -20968.4763586872     17755.9322184048     15149.7758115835     18606.4376682114            12.228263            12.228263            12.228263 
Updating chimesFF neighbor lists...
	Rank 0 3-body list size: 2797
	Rank 0 4-body list size: 0
	...update complete
                49.8      498     305.814702255266    -21426.3656581712     -21600.476585914     174.110927742769      16717.883581238     1828.49725331279     1.04705377649576    -20980.5539209523      17286.060559998     14646.0644206749     18221.5257630412            12.228263            12.228263            12.228263 
Updating chimesFF neighbor lists...
	Rank 0 3-body list size: 2826
	Rank 0 4-body list size: 0
	...update complete
                49.9      499     305.380849444479    -21426.3677248994    -21600.2316451738     173.863920274413     16258.8965389197     1828.49725331279     1.04705377649576    -20992.7956835548     16802.1773826428      14148.645785088     17825.8664490283            12.228263            12.228263            12.228263 
Updating chimesFF neighbor lists...
	Rank 0 3-body list size: 2827
	Rank 0 4-body list size: 0
	...update complete
                  50      500     305.015185181041    -21426.3698526287    -21600.0255875422      173.65573491354     15795.8731369416     1828.49725331279     1.04705377649576    -21005.1451437802     16307.0439590992     13659.2071558641     17421.3682958615            12.228263            12.228263            12.228263 
Loop time of 7.91624 on 36 procs for 500 steps with 192 atoms

Performance: 0.546 ns/day, 43.979 hours/ns, 63.161 timesteps/s
-0.0% CPU use with 36 MPI tasks x no OpenMP threads

MPI task timing breakdown:
Section |  min time  |  avg time  |  max time  |%varavg| %total
---------------------------------------------------------------
Pair    | 0.76172    | 3.0533     | 6.3195     |  73.5 | 38.57
Neigh   | 0.86218    | 0.89487    | 0.9445     |   1.8 | 11.30
Comm    | 0.24989    | 3.4985     | 5.7742     |  68.6 | 44.19
Output  | 0.46509    | 0.46529    | 0.4707     |   0.1 |  5.88
Modify  | 0.003082   | 0.0034754  | 0.0040276  |   0.4 |  0.04
Other   |            | 0.0008005  |            |       |  0.01

Nlocal:        5.33333 ave           8 max           2 min
Histogram: 1 2 0 6 0 13 6 0 5 3
Nghost:        581.556 ave         597 max         567 min
Histogram: 1 1 5 8 4 6 5 1 1 4
Neighs:        0.00000 ave           0 max           0 min
Histogram: 36 0 0 0 0 0 0 0 0 0
FullNghs:      800.222 ave        1225 max         289 min
Histogram: 1 2 0 6 8 5 6 1 4 3

Total # of neighbors = 28808
Ave neighs/atom = 150.04167
Neighbor list builds = 500
Dangerous builds not checked
Total wall time: 0:00:08
