# Position data file
 
128 atoms
5 atom types
 
    0.000000000    12.219990730 xlo xhi
    0.000000000    14.620910645 ylo yhi
    0.000000000    13.745848170 zlo zhi
    0.000000000    -2.565747966     0.000000000 xy xz yz
 
Masses
 
1    26.982000000
2    12.011000000
3     1.008000000
4    14.007000000
5    15.999000000
 
Atoms
 
1 1 0     7.886901381     8.234979628     6.012323968
2 1 0     3.050215000     0.924524087     0.860600117
3 1 0     1.767341017     6.385931455     7.733524202
4 1 0     6.604027398    13.696386339    12.885248053
5 1 0    -1.282873983     7.310455322     6.872924085
6 1 0     0.000000000     0.000000000     0.000000000
7 1 0     4.827121382     7.310455322     6.872924085
8 1 0     6.109995365     0.000000000     0.000000000
9 2 0    -0.695993957     5.943736297     9.283437312
10 2 0     9.067362458    13.254191619    11.335334942
11 2 0    10.350236440     8.677174347     4.462410857
12 2 0     0.586880026     1.366718908     2.410513228
13 2 0     5.451492234     9.767002479     5.487741082
14 2 0     5.485624900     2.456546952     1.385182893
15 2 0     4.202750897     4.853908589     8.258107088
16 2 0     4.168618251    12.164363488    12.360665166
17 2 0    -1.226048891     2.486870765    12.912588641
18 2 0     9.597417942     9.797326306     7.706183614
19 2 0    10.880291917    12.134039661     0.833259570
20 2 0     0.056825092     4.823584777     6.039664556
21 2 0     4.927208218    10.963680343     4.804765076
22 2 0     6.009908529     3.653224582     2.068159009
23 2 0     4.727034470     3.657230741     8.941083507
24 2 0     3.644334312    10.967685624    11.677688748
25 2 0     4.679596965    13.693754487     2.384011219
26 2 0     6.257519782     6.383299603     4.488912866
27 2 0     4.974648321     0.927155836    11.361823439
28 2 0     3.396720461     8.237611480     9.256948816
29 2 0    -1.225875032     5.117157852    10.379751482
30 2 0     9.597244034    12.427627985    10.239020773
31 2 0    10.880117940     9.503737982     3.366097101
32 2 0     0.056999027     2.193297471     3.506826984
33 2 0    -1.389295265     3.586436320    11.960289819
34 2 0     9.760676524    10.896891423     8.658482435
35 2 0    11.043550545    11.034474543     1.785558144
36 2 0    -0.106421282     3.724019221     5.087365734
37 2 0     4.672584703    12.674896592     3.432338219
38 2 0     6.264531716     5.364441270     3.440585659
39 2 0     4.981657733     1.946014053    10.313509744
40 2 0     3.389710682     9.256469375    10.305262510
41 2 0     5.611497652    11.751513039     3.858390728
42 2 0     5.325606756     4.441057716     3.014533150
43 2 0     4.042732811     2.869397606     9.887457029
44 2 0     4.328623592    10.179852928    10.731315226
45 2 0    -0.457499245     4.292465270    11.222742837
46 2 0     8.828868211    11.602920592     9.396029417
47 2 0    10.111742193    10.328445375     2.523105332
48 2 0     0.825374737     3.017989833     4.349818752
49 3 0     6.745755864     7.939300631     8.124744498
50 3 0     1.625612551     0.628845367    12.494027757
51 3 0     2.908486611     6.681610014     5.621103259
52 3 0     8.028629808    13.992065336     1.251820619
53 3 0     8.742927592     6.411985918     7.321533407
54 3 0    -0.371558810    13.722440801    13.297238848
55 3 0     0.911315172     8.208925165     6.424314763
56 3 0    10.025801537     0.898469565     0.448609528
57 3 0     2.653800621    12.908260815     4.049595421
58 3 0     8.283315799     5.597805493     2.823328457
59 3 0     7.000441854     1.712649610     9.696252336
60 3 0     1.370926561     9.023105152    10.922519919
61 3 0     8.707012365     3.678591891    11.869264593
62 3 0    -0.335631388    10.989047213     8.749507662
63 3 0     0.947242672    10.942318754     1.876583165
64 3 0     9.989886271     3.631863431     4.996340920
65 3 0     6.633029504    11.642339108     3.518799659
66 3 0     4.304087243     4.331883362     3.354124426
67 3 0     3.021213335     2.978571960    10.227048112
68 3 0     5.350155447    10.289026859    10.391724143
69 3 0     0.620048686     4.204213702    11.265093301
70 3 0     7.751320279    11.514669024     9.353678954
71 3 0     9.034194339    10.416696943     2.480754457
72 3 0     1.902922592     3.106241621     4.392169628
73 4 0     3.648139703    11.373299351     4.967529650
74 4 0     7.288977045     4.062844029     1.905394435
75 4 0     6.006102987     3.247611293     8.778318918
76 4 0     2.365265794    10.558066616    11.840453336
77 4 0     3.530173828    12.401105551     4.135465927
78 4 0     7.406942919     5.090650228     2.737458158
79 4 0     6.124068936     2.219805094     9.610382242
80 4 0     2.247299845     9.530260416    11.008390012
81 4 0     9.604073525     4.019171398    11.534113391
82 4 0    -1.232704792    11.329626296     9.084658863
83 4 0     0.050169265    10.601739670     2.211734380
84 4 0    10.886947434     3.291283924     4.661189705
85 4 0     9.667510287     4.951605207    10.587038528
86 4 0    -1.296141773    12.262060968    10.031733726
87 4 0    -0.013267791     9.669304999     3.158809642
88 4 0    10.950384269     2.358849896     3.714114443
89 5 0     6.686422766     9.527818549     5.294529481
90 5 0     4.250693999     2.217363446     1.578394508
91 5 0     2.967820076     5.093092096     8.451318277
92 5 0     5.403548706    12.403547418    12.167453978
93 5 0     6.629768491     7.586878215     7.230755606
94 5 0     1.741600291     0.276422922    13.388016649
95 5 0     3.024474351     7.034032429     6.515092152
96 5 0     7.912642397    14.344487752     0.357831933
97 5 0     0.521021530     5.722887749     8.997331215
98 5 0     7.850347068    13.033342632    11.621441040
99 5 0     9.133221051     8.898023334     4.748516955
100 5 0     1.803895513     1.587567676     2.124407130
101 5 0     9.130878740     7.007612385     6.663629704
102 5 0     1.806238025    14.318068132     0.209294284
103 5 0     0.523364024     7.613297835     7.082218465
104 5 0     7.848004758     0.302842922    13.536553789
105 5 0    -0.046019162     2.254880629    13.315836513
106 5 0     8.417387761     9.565336390     7.302935742
107 5 0     9.700261800    12.366029577     0.430011355
108 5 0     1.236854744     5.055574693     6.442912840
109 5 0    -2.282504835     1.855305791    13.227822273
110 5 0    10.653873605     9.165761114     7.390949982
111 5 0    11.936747557    12.765604853     0.518026062
112 5 0    -0.999630852     5.455149531     6.354898188
113 5 0     3.573824976    14.287188315     2.198002429
114 5 0     7.363291367     6.976732993     4.674921862
115 5 0     6.080417384     0.333722300    11.547845947
116 5 0     2.290951031     7.644177652     9.070926307
117 5 0     4.635418114     9.070476741     6.157274157
118 5 0     6.301698972     1.760021317     0.715650080
119 5 0     5.018825018     5.550433903     7.588574013
120 5 0     3.352544131    12.860889225    13.030198241
121 5 0     5.756463836    13.881414255     1.741681493
122 5 0     5.180653278     6.570958933     5.131242592
123 5 0     3.897779295     0.739496389    12.004166677
124 5 0     4.473589853     8.049951712     8.614605578
125 5 0    -1.472127836     6.753310989     8.690262891
126 5 0     9.843496618    14.063765873    11.928509363
127 5 0    11.126370524     7.867600094     5.055585691
128 5 0    -0.189253815     0.557144392     1.817338600
