ITEM: TIMESTEP
0
ITEM: NUMBER OF ATOMS
128
ITEM: BOX BOUNDS xy xz yz pp pp pp
-2.5657479660000000e+00 1.2219990729999999e+01 0.0000000000000000e+00
0.0000000000000000e+00 1.4620910645000000e+01 -2.5657479660000000e+00
0.0000000000000000e+00 1.3745848170000000e+01 0.0000000000000000e+00
ITEM: ATOMS id type x y z vx vy vz
2 1 3.05022 0.924524 0.8606 0.000174909 -0.00127105 0.0016101
6 1 0 0 0 -0.000186378 -0.00139516 -0.00419066
12 2 0.58688 1.36672 2.41051 5.71566e-05 0.00388393 0.00745364
32 2 0.056999 2.1933 3.50683 0.000122385 -0.00199396 0.00436449
48 2 0.825375 3.01799 4.34982 0.00742398 -0.00345362 0.00302165
72 3 1.90292 3.10624 4.39217 -0.000672071 -0.000704789 -0.0169891
100 5 1.8039 1.58757 2.12441 -0.00428831 0.000578985 0.00615304
128 5 -0.189254 0.557144 1.81734 -0.000142565 0.00554956 -0.000512973
17 2 -1.22605 2.48687 12.9126 0.005695 0.00344135 0.000929354
33 2 -1.3893 3.58644 11.9603 -0.00682222 0.000469131 0.00687422
50 3 1.62561 0.628845 12.494 -0.00279661 0.00114298 0.00377074
105 5 -0.0460192 2.25488 13.3158 0.00224783 0.00353585 0.00229199
109 5 -2.2825 1.85531 13.2278 -0.00296788 -0.00339533 0.00382821
3 1 1.76734 6.38593 7.73352 -0.00202444 0.00215947 -0.00482938
5 1 -1.28287 7.31046 6.87292 -0.0029861 -0.0033425 0.00105079
20 2 0.0568251 4.82358 6.03966 -0.00278115 -0.00681247 -0.00194535
36 2 -0.106421 3.72402 5.08737 0.00666237 -0.00298545 -0.001129
51 3 2.90849 6.68161 5.6211 -0.0260458 -0.0137141 -0.00773091
97 5 0.521022 5.72289 8.99733 0.00223966 0.00260423 0.00627124
108 5 1.23685 5.05557 6.44291 0.00412047 0.00356443 0.00522673
112 5 -0.999631 5.45515 6.3549 0.00552139 0.00177096 -0.00121676
125 5 -1.47213 6.75331 8.69026 0.00550372 0.00502672 -0.00198176
9 2 -0.695994 5.94374 9.28344 -0.00678783 -0.00406659 -0.00168147
29 2 -1.22588 5.11716 10.3798 0.00652553 -0.00392315 0.000147645
45 2 -0.457499 4.29247 11.2227 0.00275489 -0.00192115 -7.32546e-05
69 3 0.620049 4.20421 11.2651 -0.019847 -0.0230806 0.0252722
63 3 0.947243 10.9423 1.87658 0.0118723 0.00232408 0.0161455
83 4 0.0501693 10.6017 2.21173 -0.00630019 -0.00624035 0.00620032
87 4 -0.0132678 9.6693 3.15881 -0.00139302 0.00177744 -0.00563258
55 3 0.911315 8.20893 6.42431 0.0136283 0.00322901 0.00691391
103 5 0.523364 7.6133 7.08222 -0.00522944 -0.00520542 0.00456507
116 5 2.29095 7.64418 9.07093 -0.00282537 0.0043272 0.00103843
60 3 1.37093 9.02311 10.9225 0.00228346 -0.00441714 -0.0148271
57 3 2.6538 12.9083 4.0496 -0.022301 -0.0145008 -0.0221877
102 5 1.80624 14.3181 0.209294 -0.00306109 -0.00112628 -0.0048647
113 5 3.57382 14.2872 2.198 -0.00400459 -0.00574842 0.00521733
62 3 -0.335631 10.989 8.74951 0.0106591 -0.00623266 0.0173585
82 4 -1.2327 11.3296 9.08466 0.0037389 -0.00379672 0.00322892
54 3 -0.371559 13.7224 13.2972 0.00372627 0.00411068 -0.0128878
86 4 -1.29614 12.2621 10.0317 0.00430654 0.000913887 0.00271391
8 1 6.11 0 0 -0.00076293 0.00481802 -0.00127779
14 2 5.48562 2.45655 1.38518 -0.000400116 0.00224108 -0.00225253
22 2 6.00991 3.65322 2.06816 -0.00354762 0.00660363 -0.00703897
90 5 4.25069 2.21736 1.57839 0.00382085 0.00202524 0.00230822
118 5 6.3017 1.76002 0.71565 -0.00201721 -0.000963348 0.00505133
75 4 6.0061 3.24761 8.77832 -0.00346382 0.00119761 0.00351849
27 2 4.97465 0.927156 11.3618 -0.0076149 -0.00156812 -0.0028116
39 2 4.98166 1.94601 10.3135 -0.00397843 -0.00682853 -0.00424606
43 2 4.04273 2.8694 9.88746 0.00128424 0.000954765 -0.0029318
67 3 3.02121 2.97857 10.227 0.0163228 0.0152529 0.0126223
79 4 6.12407 2.21981 9.61038 0.00622113 0.000493681 -0.00276441
94 5 1.7416 0.276423 13.388 0.0011261 0.00458714 0.00429818
123 5 3.89778 0.739496 12.0042 0.000314786 -0.00216632 0.00493752
26 2 6.25752 6.3833 4.48891 -0.00564168 0.00270998 0.00583902
38 2 6.26453 5.36444 3.44059 0.00215588 0.00748592 0.00513474
42 2 5.32561 4.44106 3.01453 -0.00147237 -0.00640603 -0.00434946
66 3 4.30409 4.33188 3.35412 0.0248255 -0.02486 0.0134361
74 4 7.28898 4.06284 1.90539 0.00595232 0.00244902 -0.00362953
78 4 7.40694 5.09065 2.73746 0.00647707 0.000738933 -0.00708168
7 1 4.82712 7.31046 6.87292 0.00361554 0.00466205 0.00366409
15 2 4.20275 4.85391 8.25811 0.00628566 -0.00470982 0.00469341
23 2 4.72703 3.65723 8.94108 0.00365781 -0.00520849 9.27481e-05
91 5 2.96782 5.09309 8.45132 0.00435589 0.00401779 -0.00134788
95 5 3.02447 7.03403 6.51509 -0.00205423 0.00443287 0.00353028
119 5 5.01883 5.55043 7.58857 -0.00415044 -0.00139882 -0.00155011
122 5 5.18065 6.57096 5.13124 -0.0031056 0.00122988 0.00442982
13 2 5.45149 9.767 5.48774 -9.17074e-06 0.0070413 -0.00421934
21 2 4.92721 10.9637 4.80477 0.00445431 -0.00201173 0.00476846
89 5 6.68642 9.52782 5.29453 0.00395962 0.00135548 0.000706668
93 5 6.62977 7.58688 7.23076 0.00290893 -0.00405888 -0.00250465
117 5 4.63542 9.07048 6.15727 4.07936e-06 0.000890193 -0.00211278
124 5 4.47359 8.04995 8.61461 -0.00701367 -0.00640363 0.00276854
28 2 3.39672 8.23761 9.25695 -0.00591112 -0.00692784 -0.00432666
40 2 3.38971 9.25647 10.3053 0.00716577 0.00242312 0.00271968
44 2 4.32862 10.1799 10.7313 0.00504934 0.000416233 -0.000437151
68 3 5.35016 10.289 10.3917 -0.0183107 -0.0189163 0.0108727
76 4 2.36527 10.5581 11.8405 0.00516185 -0.000121606 -0.00637643
80 4 2.2473 9.53026 11.0084 -7.45045e-05 -0.000191384 0.0018753
25 2 4.6796 13.6938 2.38401 0.00605316 -0.00747978 -0.00674536
37 2 4.67258 12.6749 3.43234 -0.00501772 0.00317512 -0.00195298
41 2 5.6115 11.7515 3.85839 -0.00232679 -0.0067931 -0.00709923
65 3 6.63303 11.6423 3.5188 -0.0238618 0.00555845 0.0246548
77 4 3.53017 12.4011 4.13547 0.0055612 0.00476048 0.00282629
96 5 7.91264 14.3445 0.357832 -0.0022155 -0.00472244 0.00466614
121 5 5.75646 13.8814 1.74168 0.00525197 0.00306077 -0.00149919
73 4 3.64814 11.3733 4.96753 -0.000226188 0.00204572 -0.00196766
16 2 4.16862 12.1644 12.3607 -0.00528903 -0.00640782 -0.00300671
24 2 3.64433 10.9677 11.6777 -0.00311827 -0.00440251 0.00515782
92 5 5.40355 12.4035 12.1675 0.00230331 -0.00528987 0.00411178
120 5 3.35254 12.8609 13.0302 0.000488942 0.00535787 -0.00251902
56 3 10.0258 0.89847 0.44861 0.0258157 -0.0150251 0.024403
88 4 10.9504 2.35885 3.71411 -0.00251412 -0.0026097 -0.00709568
64 3 9.98989 3.63186 4.99634 0.00763863 -0.00632556 -0.0221841
84 4 10.8869 3.29128 4.66119 -0.00401145 -0.00241465 0.0050084
59 3 7.00044 1.71265 9.69625 -0.0202176 -0.00057596 -0.0258207
104 5 7.848 0.302843 13.5366 -0.00476842 -0.00591288 -0.00292262
115 5 6.08042 0.333722 11.5478 0.0026469 -0.00144986 0.000114529
58 3 8.28332 5.59781 2.82333 0.0245925 0.0263371 -0.0118162
53 3 8.74293 6.41199 7.32153 0.0150932 0.00203863 0.00145383
101 5 9.13088 7.00761 6.66363 -0.000618104 -0.00593645 -0.00345137
114 5 7.36329 6.97673 4.67492 0.00272712 -0.0038617 -0.003546
61 3 8.70701 3.67859 11.8693 -0.0236209 -0.0234682 -0.0204714
81 4 9.60407 4.01917 11.5341 0.00335063 0.002482 -0.00332547
85 4 9.66751 4.95161 10.587 -0.00299963 0.00233174 -0.00642769
11 2 10.3502 8.67717 4.46241 0.00502492 -0.000566841 -0.00606675
31 2 10.8801 9.50374 3.3661 0.00116117 -0.004697 -0.00033894
47 2 10.1117 10.3284 2.52311 0.00550674 0.00411343 0.00716647
71 3 9.03419 10.4167 2.48075 -0.000920333 0.0118276 0.00287
1 1 7.8869 8.23498 6.01232 -0.00447859 -0.00119021 -0.00536221
18 2 9.59742 9.79733 7.70618 -0.00289629 -0.00532981 -0.00776437
34 2 9.76068 10.8969 8.65848 -0.00762235 -0.000817984 -0.00727474
49 3 6.74576 7.9393 8.12474 0.0106873 -0.0203787 -0.00206501
99 5 9.13322 8.89802 4.74852 0.000920793 0.00563785 -0.00357726
106 5 8.41739 9.56534 7.30294 0.00439875 0.00123405 0.00621367
110 5 10.6539 9.16576 7.39095 -0.00177004 0.00598992 0.00636575
127 5 11.1264 7.8676 5.05559 0.00627566 0.00493581 -0.0019901
19 2 10.8803 12.134 0.83326 -0.0012284 0.000193647 0.00595735
35 2 11.0436 11.0345 1.78556 -0.00680344 0.00123224 1.27623e-05
52 3 8.02863 13.9921 1.25182 -0.00569273 0.0251781 0.0203306
107 5 9.70026 12.366 0.430011 -0.00483683 0.00394401 6.62394e-05
111 5 11.9367 12.7656 0.518026 3.02987e-05 0.00499681 -1.40375e-05
4 1 6.60403 13.6964 12.8852 -0.00549335 0.00430112 -0.00102205
10 2 9.06736 13.2542 11.3353 -0.000610113 -0.000206646 0.00149942
30 2 9.59724 12.4276 10.239 0.00630916 -0.00340362 -0.00677212
46 2 8.82887 11.6029 9.39603 -0.00619384 -0.0034205 -0.00711099
70 3 7.75132 11.5147 9.35368 0.019823 -0.0202148 -0.0192917
98 5 7.85035 13.0333 11.6214 -0.00591469 0.00569839 0.00427725
126 5 9.8435 14.0638 11.9285 0.00358541 0.00122476 0.000296896
ITEM: TIMESTEP
5
ITEM: NUMBER OF ATOMS
128
ITEM: BOX BOUNDS xy xz yz pp pp pp
-2.5657479660000000e+00 1.2219990729999999e+01 0.0000000000000000e+00
0.0000000000000000e+00 1.4620910645000000e+01 -2.5657479660000000e+00
0.0000000000000000e+00 1.3745848170000000e+01 0.0000000000000000e+00
ITEM: ATOMS id type x y z vx vy vz
2 1 3.0503 0.92388 0.861407 0.000179035 -0.00130459 0.00162024
128 5 -0.189333 0.559914 1.81709 -0.000175623 0.00552957 -0.000471576
12 2 0.586908 1.36869 2.41425 4.71079e-05 0.00397756 0.00747463
32 2 0.0570488 2.19223 3.50895 7.48296e-05 -0.00225998 0.00414678
48 2 0.829081 3.01626 4.35133 0.00738202 -0.00347353 0.00301273
72 3 1.90282 3.10585 4.38367 0.000362891 -0.000828042 -0.0169754
100 5 1.80178 1.58787 2.12747 -0.00418214 0.000613765 0.00608989
17 2 -1.22325 2.48861 12.913 0.00547574 0.00352034 0.0007978
33 2 -1.39278 3.58666 11.9637 -0.00709446 0.000419572 0.0069183
50 3 1.62416 0.629516 12.4957 -0.00299788 0.00153425 0.00295192
105 5 -0.0448732 2.25664 13.317 0.00233772 0.00351292 0.00232807
109 5 -2.28399 1.8536 13.2297 -0.00296327 -0.00340657 0.00386034
3 1 1.76633 6.38702 7.73111 -0.00201918 0.00218612 -0.00481771
125 5 -1.46939 6.75583 8.68928 0.00546001 0.00504527 -0.00193998
20 2 0.0554045 4.82015 6.03866 -0.00288032 -0.00689696 -0.00206937
36 2 -0.103173 3.72255 5.08682 0.00632061 -0.00291172 -0.00105067
51 3 2.89545 6.67472 5.6172 -0.0260107 -0.013679 -0.00753294
97 5 0.522159 5.72418 9.00045 0.00230563 0.00257436 0.00621576
108 5 1.23893 5.05736 6.44553 0.00417379 0.00357062 0.00524271
112 5 -0.996879 5.45604 6.3543 0.00548431 0.00179703 -0.00117787
9 2 -0.699376 5.94167 9.28261 -0.00672183 -0.00418266 -0.00164473
29 2 -1.22263 5.11527 10.3798 0.00645235 -0.00364456 -8.53889e-05
45 2 -0.456133 4.29151 11.2227 0.002681 -0.00192502 -4.86164e-05
69 3 0.610436 4.19273 11.2777 -0.0183079 -0.0228574 0.0251326
63 3 0.953307 10.9438 1.88436 0.0121583 0.00361864 0.0150227
83 4 0.0470093 10.5987 2.21476 -0.00631761 -0.00592937 0.00587766
87 4 -0.0140316 9.67015 3.15604 -0.00165998 0.00157927 -0.00543163
55 3 0.918129 8.21055 6.42771 0.0135138 0.00315251 0.00680274
103 5 0.52075 7.61069 7.0845 -0.0052176 -0.00521492 0.00456727
116 5 2.28952 7.64633 9.07145 -0.0028883 0.00429306 0.00105515
60 3 1.37174 9.02047 10.9149 0.000996644 -0.00607584 -0.0158298
57 3 2.64242 12.9014 4.03824 -0.0229865 -0.0131276 -0.0232111
102 5 1.80471 14.3175 0.206868 -0.00305323 -0.00109426 -0.0048428
113 5 3.57182 14.2843 2.20062 -0.0040203 -0.00573324 0.00523185
62 3 -0.330097 10.9856 8.75786 0.0114176 -0.00773103 0.0160333
82 4 -1.23086 11.3277 9.0862 0.00363974 -0.00406778 0.00294588
54 3 -0.369668 13.7245 13.2907 0.00378979 0.00399162 -0.013209
86 4 -1.29406 12.2626 10.0331 0.00402367 0.00107144 0.00287543
118 5 6.30071 1.75955 0.718171 -0.0019518 -0.000936999 0.00502862
14 2 5.48543 2.45769 1.38409 -0.000383514 0.00232077 -0.0021276
90 5 4.25259 2.21836 1.57955 0.00376041 0.00197484 0.00231679
75 4 6.00431 3.24827 8.78005 -0.00371342 0.00143369 0.00340225
23 2 4.72886 3.65469 8.94108 0.00363426 -0.00496559 -0.000115302
27 2 4.97088 0.926391 11.3604 -0.00744063 -0.00149968 -0.0028715
39 2 4.97974 1.94257 10.3114 -0.0036798 -0.00692477 -0.00430335
43 2 4.04338 2.86987 9.88599 0.00132559 0.000944409 -0.00293579
67 3 3.02912 2.98621 10.2334 0.0151893 0.0153112 0.0128752
79 4 6.12715 2.21999 9.60907 0.00606631 0.000249461 -0.00247872
94 5 1.74217 0.278717 13.3902 0.00115699 0.00458901 0.00436417
123 5 3.89791 0.738401 12.0066 0.000202628 -0.00221311 0.00496373
8 1 3.54387 0.00240837 13.7452 -0.000760006 0.00481403 -0.00127659
26 2 6.25473 6.38463 4.49181 -0.00549126 0.00261421 0.00575463
38 2 6.26568 5.3682 3.44313 0.00242526 0.00752444 0.00503443
42 2 5.32489 4.43786 3.01236 -0.00136592 -0.00636437 -0.00435143
66 3 4.31618 4.31944 3.36092 0.0233223 -0.024948 0.0138211
74 4 7.29188 4.06401 1.90355 0.00564448 0.00220978 -0.00372783
78 4 7.41017 5.0911 2.73399 0.00646315 0.00106867 -0.00677718
22 2 6.00814 3.65647 2.06459 -0.00351995 0.00638 -0.00725084
122 5 5.17907 6.57159 5.13347 -0.00321516 0.00128254 0.0044626
15 2 4.20589 4.85154 8.26048 0.00626727 -0.00475326 0.00479632
119 5 5.01677 5.54973 7.5878 -0.00408353 -0.00143196 -0.00156514
91 5 2.96999 5.09511 8.45065 0.00432021 0.00405528 -0.0013331
95 5 3.02345 7.03624 6.51686 -0.00203137 0.00440642 0.00353441
13 2 5.45149 9.77053 5.48561 -8.06612e-06 0.00706548 -0.00430831
21 2 4.92943 10.9626 4.8072 0.00443174 -0.00219486 0.00493999
89 5 6.68841 9.52849 5.29488 0.00398915 0.00131574 0.000698954
93 5 6.63121 7.58485 7.22948 0.00287313 -0.00405984 -0.00258389
117 5 4.63541 9.07093 6.15622 -4.12841e-05 0.000929997 -0.00210466
124 5 4.47011 8.04674 8.61598 -0.00688886 -0.00645933 0.00272619
7 1 4.82893 7.31279 6.87476 0.0036097 0.00465987 0.00366085
28 2 3.39374 8.23418 9.25481 -0.00601126 -0.00678944 -0.00421712
40 2 3.39322 9.25765 10.3066 0.00686041 0.00228867 0.00274195
44 2 4.33113 10.1801 10.7311 0.00493523 0.00041462 -0.000388099
68 3 5.34138 10.2796 10.3971 -0.0164032 -0.0187185 0.0103792
76 4 2.36791 10.5581 11.8373 0.00540898 0.00012104 -0.00625143
80 4 2.24728 9.53009 11.0093 1.48929e-06 -0.000480503 0.00158411
24 2 3.64278 10.9655 11.6803 -0.00307868 -0.00417317 0.00534453
25 2 4.68259 13.69 2.38066 0.00588683 -0.00754181 -0.00667541
37 2 4.67001 12.6765 3.43137 -0.00524655 0.00324173 -0.00190467
41 2 5.61031 11.7481 3.85485 -0.00245471 -0.00678259 -0.00704599
65 3 6.6215 11.6451 3.53101 -0.0218051 0.00541947 0.0240284
77 4 3.53296 12.4036 4.13681 0.00555448 0.0050619 0.00255952
96 5 7.91153 14.3421 0.36015 -0.00225167 -0.00472305 0.00460912
121 5 5.75912 13.883 1.74092 0.00535375 0.0031078 -0.00152635
73 4 3.6481 11.3743 4.96657 6.66995e-05 0.00180229 -0.00185935
16 2 4.16598 12.1611 12.3591 -0.00526962 -0.0064353 -0.00310147
120 5 3.35278 12.8636 13.0289 0.000437773 0.00531424 -0.00251378
92 5 5.40471 12.4009 12.1695 0.00231977 -0.00525435 0.00410234
56 3 10.0386 0.89102 0.460926 0.025539 -0.0147978 0.0248299
88 4 10.9492 2.3575 3.71053 -0.00223179 -0.00276259 -0.00724911
64 3 9.99336 3.62913 4.98563 0.005984 -0.00448982 -0.0205414
84 4 10.885 3.29014 4.66376 -0.00384452 -0.00219146 0.00524001
59 3 6.9908 1.71184 9.68362 -0.0180224 -0.00287674 -0.0246757
104 5 7.84562 0.299878 13.5351 -0.00475031 -0.00594074 -0.00294225
115 5 6.08175 0.332995 11.5479 0.00265443 -0.00145172 8.38669e-05
58 3 8.29578 5.61132 2.81767 0.0248895 0.0275007 -0.0108556
53 3 8.75039 6.41289 7.32243 0.0146663 0.00148986 0.00224369
101 5 9.13057 7.00466 6.66189 -0.000596948 -0.00587515 -0.00349934
114 5 7.36466 6.97481 4.67314 0.00275687 -0.00383709 -0.00356103
5 1 10.9356 7.30878 6.87345 -0.00298375 -0.00333927 0.00104676
61 3 8.69514 3.66654 11.8593 -0.0235064 -0.0245934 -0.0195183
81 4 9.60575 4.02034 11.5325 0.0033249 0.00219506 -0.00302622
85 4 9.66608 4.95281 10.5838 -0.00269508 0.00249176 -0.00659167
11 2 10.3527 8.67692 4.45937 0.00498477 -0.000450357 -0.00608838
31 2 10.8807 9.50132 3.36598 0.00120062 -0.00495964 -0.000124255
47 2 10.1145 10.3305 2.52669 0.00542772 0.00409881 0.00716254
71 3 9.0336 10.4226 2.48221 -0.00134633 0.0115946 0.00297529
1 1 7.88466 8.23438 6.00964 -0.00448011 -0.0012229 -0.00536937
18 2 9.59601 9.7947 7.70235 -0.00271206 -0.00516367 -0.0075614
34 2 9.75695 10.8965 8.65483 -0.00726137 -0.000876886 -0.00732996
49 3 6.75116 7.92922 8.12395 0.0109251 -0.0198964 -0.00102503
99 5 9.13366 8.90085 4.74674 0.000853398 0.00566217 -0.00351956
106 5 8.41956 9.56594 7.30603 0.00426626 0.00119027 0.00615192
110 5 10.653 9.16874 7.39412 -0.00171774 0.0059303 0.00630604
127 5 11.1295 7.87006 5.05458 0.00630634 0.00490923 -0.00202229
19 2 10.8797 12.1341 0.836271 -0.00108811 0.000113566 0.00607535
35 2 11.0402 11.0351 1.78555 -0.00646264 0.00130382 -5.2341e-05
52 3 8.02584 14.0046 1.26215 -0.00546976 0.0248178 0.0208984
107 5 9.69783 12.368 0.430038 -0.00489674 0.00395681 4.49679e-05
111 5 11.9368 12.7681 0.51801 4.26838e-05 0.00501221 -4.6502e-05
4 1 6.60128 13.6985 12.8847 -0.0055012 0.0043301 -0.00102558
10 2 9.06705 13.2541 11.3361 -0.000630802 -0.000327317 0.00145371
30 2 9.6004 12.426 10.2357 0.00630381 -0.00311465 -0.00652001
46 2 8.82579 11.6012 9.39247 -0.00609009 -0.00339806 -0.00710806
70 3 7.76089 11.5046 9.34406 0.0181113 -0.0200166 -0.0191798
98 5 7.84737 13.0362 11.6236 -0.00596526 0.00566405 0.00431982
126 5 9.8453 14.0644 11.9286 0.00360794 0.00123617 0.000250379
6 1 9.65415 14.6202 13.7438 -0.000186117 -0.00139256 -0.00418851
ITEM: TIMESTEP
10
ITEM: NUMBER OF ATOMS
128
ITEM: BOX BOUNDS xy xz yz pp pp pp
-2.5657479660000000e+00 1.2219990729999999e+01 0.0000000000000000e+00
0.0000000000000000e+00 1.4620910645000000e+01 -2.5657479660000000e+00
0.0000000000000000e+00 1.3745848170000000e+01 0.0000000000000000e+00
ITEM: ATOMS id type x y z vx vy vz
2 1 3.05039 0.923219 0.862221 0.000179498 -0.00134056 0.00163747
128 5 -0.189429 0.562675 1.81687 -0.000208244 0.0055152 -0.000422347
12 2 0.58692 1.37069 2.41798 -5.59172e-06 0.0040236 0.00745333
32 2 0.0570723 2.19104 3.51098 1.75243e-05 -0.00251267 0.00394386
48 2 0.832741 3.01451 4.35283 0.0072413 -0.00350766 0.00298429
72 3 1.90338 3.10543 4.37521 0.00198089 -0.00084649 -0.0168444
100 5 1.79972 1.58818 2.1305 -0.00403026 0.000654861 0.00601541
17 2 -1.22059 2.49038 12.9134 0.00513801 0.00353325 0.000706112
33 2 -1.39638 3.58686 11.9672 -0.00729302 0.000425424 0.00689833
50 3 1.62262 0.630373 12.497 -0.00317868 0.00188474 0.00219171
105 5 -0.0436802 2.25839 13.3182 0.00243557 0.00348851 0.0023672
109 5 -2.28546 1.85191 13.2317 -0.00289683 -0.00337832 0.00387248
3 1 1.76532 6.38812 7.72871 -0.00201526 0.00220158 -0.00479584
125 5 -1.46667 6.75835 8.68832 0.005396 0.00505495 -0.00188942
20 2 0.053963 4.8167 6.0376 -0.00286556 -0.00692469 -0.00213833
36 2 -0.10011 3.72111 5.08632 0.00591761 -0.00284647 -0.000969432
51 3 2.88255 6.66806 5.61387 -0.025485 -0.0128139 -0.00544759
97 5 0.523322 5.72546 9.00355 0.00233778 0.00254768 0.00616376
108 5 1.24102 5.05914 6.44815 0.0041647 0.0035451 0.00522237
112 5 -0.99415 5.45694 6.35372 0.00542833 0.00181193 -0.00114612
9 2 -0.702699 5.93955 9.28179 -0.00654844 -0.00429474 -0.0016189
29 2 -1.21943 5.11352 10.3797 0.00631907 -0.00335455 -0.000334035
45 2 -0.454844 4.29054 11.2227 0.00244796 -0.00195977 2.04271e-05
69 3 0.601991 4.18137 11.2902 -0.0152133 -0.0225551 0.0248314
63 3 0.959202 10.9459 1.89167 0.011203 0.00453484 0.0142764
83 4 0.0438712 10.5958 2.2176 -0.00621341 -0.00552424 0.00545708
87 4 -0.0149256 9.67088 3.15339 -0.0019135 0.00133188 -0.00518472
55 3 0.924731 8.21196 6.43124 0.0127875 0.00237097 0.00745224
103 5 0.518153 7.60809 7.08678 -0.00516678 -0.00516579 0.00451611
116 5 2.28805 7.64847 9.07198 -0.00300181 0.00422847 0.00105795
60 3 1.37195 9.01707 10.9067 -0.000149241 -0.00751143 -0.0167083
57 3 2.63102 12.895 4.0264 -0.0224028 -0.0124739 -0.0241354
102 5 1.80319 14.317 0.204449 -0.00301361 -0.0010779 -0.00483791
113 5 3.56981 14.2815 2.20323 -0.00399246 -0.00572514 0.00522777
62 3 -0.324277 10.9813 8.76554 0.0117838 -0.00922454 0.0147255
82 4 -1.22907 11.3256 9.0876 0.00350771 -0.00435355 0.00264236
54 3 -0.367812 13.7265 13.2841 0.00358315 0.0042185 -0.0131402
86 4 -1.29212 12.2631 10.0346 0.00372247 0.00119614 0.00300344
118 5 6.29975 1.75908 0.720676 -0.00186453 -0.000918928 0.00499092
14 2 5.48524 2.45887 1.38306 -0.000357905 0.00242105 -0.001989
90 5 4.25445 2.21934 1.58071 0.00366452 0.00191483 0.00232725
75 4 6.0024 3.24904 8.78172 -0.00389386 0.00166146 0.00326372
23 2 4.73066 3.65227 8.94097 0.00356253 -0.00468591 -0.000327515
27 2 4.96722 0.92565 11.359 -0.00716759 -0.00147144 -0.00292049
39 2 4.97798 1.93909 10.3092 -0.00334751 -0.00700167 -0.00438881
43 2 4.04406 2.87034 9.88452 0.00140755 0.00089119 -0.00292076
67 3 3.03632 2.99389 10.2399 0.0135246 0.0154394 0.0132614
79 4 6.13011 2.22006 9.60791 0.00573404 6.44034e-05 -0.00216688
94 5 1.74276 0.281012 13.3924 0.0011822 0.00459124 0.00442144
123 5 3.89798 0.737284 12.0091 8.06403e-05 -0.00225293 0.0049836
8 1 3.54349 0.00481275 13.7446 -0.000751325 0.00480206 -0.00127293
26 2 6.25204 6.38591 4.49466 -0.00528734 0.00250547 0.00563275
38 2 6.26695 5.37194 3.4456 0.00267355 0.00743245 0.00482174
42 2 5.32427 4.43471 3.01019 -0.00109393 -0.00621944 -0.00433186
66 3 4.32721 4.30691 3.36801 0.0205796 -0.0251725 0.0146077
74 4 7.29461 4.06505 1.90167 0.00529001 0.00197262 -0.00381295
78 4 7.41342 5.09174 2.73069 0.00653335 0.00150135 -0.00641342
22 2 6.0064 3.6596 2.06091 -0.00343755 0.00615827 -0.00747446
122 5 5.17744 6.57224 5.13571 -0.00332955 0.00133993 0.00450216
15 2 4.20901 4.84916 8.2629 0.00618866 -0.00474479 0.00486894
119 5 5.01475 5.549 7.58701 -0.00399194 -0.00147023 -0.00158002
91 5 2.97214 5.09714 8.44999 0.00429801 0.00407673 -0.00130405
95 5 3.02244 7.03843 6.51861 -0.00203075 0.00433423 0.00341879
13 2 5.45149 9.77405 5.48344 1.99215e-05 0.00699935 -0.00433956
21 2 4.93163 10.9615 4.80969 0.00436381 -0.00229475 0.00504226
89 5 6.69041 9.52914 5.29523 0.00399285 0.00128762 0.000690994
93 5 6.63264 7.58282 7.22817 0.00283336 -0.00406509 -0.00267886
117 5 4.63538 9.07141 6.15517 -6.89836e-05 0.000987865 -0.00211014
124 5 4.46671 8.04349 8.61733 -0.00672848 -0.00652597 0.00265779
7 1 4.83073 7.31511 6.87658 0.0035926 0.00465345 0.00365142
28 2 3.39072 8.23084 9.25275 -0.00606388 -0.00655355 -0.00402049
40 2 3.39656 9.25875 10.308 0.00650661 0.00209832 0.00272411
44 2 4.33353 10.1803 10.7309 0.00463273 0.000388789 -0.000268573
68 3 5.33409 10.2704 10.402 -0.0124037 -0.0181944 0.00927918
76 4 2.37066 10.5582 11.8342 0.00558209 0.000368981 -0.00608664
80 4 2.24731 9.52977 11.01 0.000101085 -0.000800726 0.00125701
24 2 3.64127 10.9635 11.683 -0.00295916 -0.00393447 0.00549278
25 2 4.68547 13.6862 2.37734 0.00563707 -0.00755035 -0.00659652
37 2 4.66735 12.6781 3.43044 -0.00537168 0.00323107 -0.00184655
41 2 5.60901 11.7447 3.85136 -0.00279818 -0.0067307 -0.00691513
65 3 6.61161 11.6477 3.54269 -0.0173586 0.0050688 0.0225565
77 4 3.53571 12.4062 4.13803 0.00541182 0.00541321 0.00230459
96 5 7.91039 14.3398 0.362445 -0.00229259 -0.00472138 0.00457957
121 5 5.76182 13.8845 1.74016 0.0054445 0.00314836 -0.00154896
73 4 3.64821 11.3751 4.96567 0.000377454 0.00155208 -0.00174417
16 2 4.16336 12.1579 12.3576 -0.00518841 -0.00637943 -0.00314973
120 5 3.35298 12.8662 13.0277 0.000393061 0.00524444 -0.00252815
92 5 5.40586 12.3983 12.1716 0.00228507 -0.00523846 0.00408915
56 3 10.0513 0.883642 0.4734 0.0251355 -0.014756 0.0250139
88 4 10.9482 2.35609 3.70687 -0.00193188 -0.00287387 -0.00735306
64 3 9.99565 3.62748 4.97589 0.00295123 -0.00198849 -0.0183153
84 4 10.8831 3.28908 4.66642 -0.00351163 -0.00204714 0.00539281
59 3 6.98269 1.7096 9.6716 -0.0141714 -0.00624583 -0.0234009
104 5 7.84326 0.296907 13.5336 -0.00471389 -0.00594095 -0.00293603
115 5 6.08306 0.332276 11.5479 0.00260263 -0.00142039 3.94493e-05
61 3 8.68382 3.65411 11.8496 -0.0214484 -0.0250173 -0.0192223
58 3 8.3079 5.62513 2.81244 0.0232975 0.0275631 -0.0100716
53 3 8.75753 6.4134 7.32386 0.0138221 0.000487881 0.00352714
101 5 9.13029 7.00174 6.66013 -0.000552148 -0.00577484 -0.00357901
114 5 7.36605 6.9729 4.67136 0.00277002 -0.00380129 -0.00355886
5 1 10.9341 7.30712 6.87397 -0.00297677 -0.00332964 0.00103468
85 4 9.66482 4.95409 10.5805 -0.00233004 0.00262303 -0.00672593
81 4 9.60737 4.02136 11.5311 0.0030991 0.00186494 -0.00268214
11 2 10.3552 8.67672 4.45633 0.00488834 -0.000336556 -0.00606871
31 2 10.8813 9.49878 3.36597 0.00123341 -0.00520181 6.91225e-05
47 2 10.1171 10.3325 2.53027 0.0052132 0.00408033 0.00715358
71 3 9.03294 10.4283 2.48375 -0.00120739 0.0112499 0.00319241
1 1 7.88242 8.23376 6.00695 -0.00447276 -0.00125648 -0.00537769
18 2 9.59471 9.79218 7.69864 -0.00247419 -0.0048913 -0.00725686
34 2 9.75343 10.896 8.65116 -0.00680049 -0.000898355 -0.00734248
49 3 6.75669 7.91942 8.12378 0.0112138 -0.0192899 0.000365138
99 5 9.13408 8.90368 4.745 0.000816887 0.00567204 -0.00346136
106 5 8.42164 9.56652 7.30908 0.00403839 0.00110326 0.00603566
110 5 10.6522 9.17168 7.39725 -0.00161495 0.00581477 0.00621209
127 5 11.1327 7.87251 5.05357 0.00633165 0.00487533 -0.00204405
19 2 10.8792 12.1342 0.839324 -0.000982695 9.88494e-05 0.0061258
35 2 11.0371 11.0358 1.78551 -0.00606098 0.00136216 -9.39793e-05
52 3 8.02316 14.0169 1.27263 -0.00522552 0.0245559 0.0208975
107 5 9.69537 12.37 0.430061 -0.00490599 0.00395102 4.98936e-05
111 5 11.9368 12.7706 0.517983 2.54329e-05 0.00499552 -5.91542e-05
4 1 6.59853 13.7007 12.8842 -0.0055127 0.00435239 -0.00102321
10 2 9.06673 13.2539 11.3368 -0.000669414 -0.000453539 0.0014013
30 2 9.60353 12.4245 10.2325 0.00620368 -0.00279358 -0.00621471
46 2 8.82281 11.5995 9.38892 -0.00576497 -0.00335522 -0.00709618
70 3 7.76912 11.4947 9.33452 0.014472 -0.0197904 -0.0189529
98 5 7.84439 13.039 11.6258 -0.00595145 0.00562399 0.00433299
126 5 9.8471 14.065 11.9288 0.003609 0.00122485 0.000185886
6 1 9.65406 14.6195 13.7417 -0.000185375 -0.00138488 -0.00418223
ITEM: TIMESTEP
15
ITEM: NUMBER OF ATOMS
128
ITEM: BOX BOUNDS xy xz yz pp pp pp
-2.5657479660000000e+00 1.2219990729999999e+01 0.0000000000000000e+00
0.0000000000000000e+00 1.4620910645000000e+01 -2.5657479660000000e+00
0.0000000000000000e+00 1.3745848170000000e+01 0.0000000000000000e+00
ITEM: ATOMS id type x y z vx vy vz
2 1 3.05048 0.922539 0.863046 0.00017628 -0.00137874 0.00166154
128 5 -0.189542 0.56543 1.81667 -0.000240425 0.00550631 -0.000365414
12 2 0.586896 1.3727 2.42169 -9.89426e-05 0.00402143 0.00738843
32 2 0.057065 2.18972 3.5129 -4.78402e-05 -0.00274989 0.00375807
48 2 0.836309 3.01275 4.35431 0.00701594 -0.00355516 0.00293745
72 3 1.90487 3.10502 4.36685 0.00402845 -0.000769823 -0.0166088
100 5 1.79775 1.58852 2.13348 -0.00383409 0.000702105 0.00593009
17 2 -1.21813 2.49214 12.9137 0.00469222 0.00348189 0.00065458
33 2 -1.40006 3.58709 11.9706 -0.00741814 0.000484179 0.00681679
50 3 1.62099 0.631388 12.4979 -0.00332422 0.00215861 0.00158532
105 5 -0.0424368 2.26013 13.3194 0.00253856 0.00346335 0.00240817
109 5 -2.28688 1.85023 13.2336 -0.00277283 -0.00331296 0.00386573
3 1 1.76431 6.38922 7.72632 -0.00201256 0.002206 -0.00476377
125 5 -1.46399 6.76088 8.68739 0.00531295 0.00505491 -0.00182959
20 2 0.0525564 4.81324 6.03653 -0.00274163 -0.00689472 -0.00215217
36 2 -0.0972635 3.7197 5.08585 0.00546132 -0.00279061 -0.000886456
51 3 2.87004 6.66202 5.612 -0.0244836 -0.0112294 -0.00180611
97 5 0.524492 5.72673 9.00662 0.00233718 0.00252366 0.00611471
108 5 1.24309 5.0609 6.45075 0.00409601 0.00348799 0.00516634
112 5 -0.991453 5.45785 6.35315 0.00535405 0.00181558 -0.00112161
9 2 -0.705908 5.93738 9.28099 -0.00627106 -0.00439941 -0.00160568
29 2 -1.21632 5.11191 10.3794 0.00612842 -0.0030566 -0.000594546
45 2 -0.453706 4.28954 11.2227 0.00208155 -0.00202261 0.000130138
69 3 0.595427 4.17018 11.3025 -0.010848 -0.0221804 0.0243898
63 3 0.964329 10.9483 1.89869 0.00911692 0.00509732 0.0138607
83 4 0.0408143 10.5932 2.2202 -0.00599465 -0.00502918 0.0049445
87 4 -0.0159426 9.67147 3.15086 -0.00215113 0.00103573 -0.00489273
55 3 0.930827 8.21283 6.43526 0.011504 0.000985853 0.00874116
103 5 0.515589 7.60553 7.08901 -0.00508025 -0.0050643 0.00441908
116 5 2.28651 7.65056 9.07251 -0.00316651 0.00413357 0.00104689
60 3 1.37164 9.01301 10.8982 -0.00103001 -0.00864597 -0.0174406
57 3 2.62021 12.8888 4.01413 -0.0206055 -0.0124723 -0.0249239
102 5 1.8017 14.3164 0.202028 -0.00294322 -0.00107588 -0.00484884
113 5 3.56783 14.2786 2.20584 -0.00392342 -0.00572297 0.00520448
62 3 -0.31839 10.9763 8.77259 0.0116737 -0.0106662 0.0134734
82 4 -1.22735 11.3233 9.08884 0.00335459 -0.0046527 0.00231975
54 3 -0.366126 13.7287 13.2776 0.00311944 0.00476639 -0.0127012
86 4 -1.29034 12.2637 10.0361 0.00340551 0.00128706 0.00309685
118 5 6.29884 1.75863 0.723159 -0.0017561 -0.000908561 0.00493894
14 2 5.48507 2.46011 1.3821 -0.000323987 0.00253913 -0.00183888
90 5 4.25625 2.22028 1.58188 0.00353428 0.00184563 0.0023398
75 4 6.00042 3.24993 8.78331 -0.00400334 0.00187701 0.00310574
23 2 4.73241 3.65001 8.94075 0.00344037 -0.00437185 -0.000541366
27 2 4.96373 0.924913 11.3575 -0.0068041 -0.00148213 -0.00295668
39 2 4.9764 1.93558 10.307 -0.00298841 -0.00705795 -0.0045004
43 2 4.04479 2.87076 9.88307 0.00151544 0.000797432 -0.00288345
67 3 3.04258 3.00166 10.2467 0.0114915 0.0156218 0.013736
79 4 6.13286 2.22006 9.60691 0.00525795 -7.21838e-05 -0.00182958
94 5 1.74335 0.283309 13.3946 0.00120075 0.00459599 0.00446402
123 5 3.89799 0.73615 12.0116 -4.86259e-05 -0.0022851 0.00499538
8 1 3.54312 0.00720917 13.7439 -0.000737082 0.00478221 -0.00126673
26 2 6.24945 6.38713 4.49744 -0.00503371 0.00238467 0.00547557
38 2 6.26835 5.37561 3.44794 0.0029006 0.00721696 0.00450284
42 2 5.32382 4.43166 3.00803 -0.000684437 -0.00597793 -0.00428781
66 3 4.33661 4.29425 3.37558 0.016871 -0.0255192 0.0157312
74 4 7.29716 4.06598 1.89974 0.00489362 0.00174181 -0.00388328
78 4 7.41672 5.09261 2.72759 0.00666949 0.00202127 -0.00599891
22 2 6.00471 3.66263 2.05711 -0.00330242 0.00594113 -0.00770698
122 5 5.17574 6.57293 5.13797 -0.0034467 0.00140137 0.00454685
15 2 4.21207 4.8468 8.26534 0.00605113 -0.00468251 0.00490954
119 5 5.01278 5.54826 7.58622 -0.00387655 -0.00151372 -0.00159446
91 5 2.97429 5.09919 8.44935 0.00428877 0.00408232 -0.00126072
95 5 3.02142 7.04057 6.52027 -0.00205217 0.00422295 0.00320388
13 2 5.45151 9.77752 5.48128 7.58084e-05 0.00684177 -0.0043125
21 2 4.93379 10.9603 4.81223 0.00425083 -0.00230975 0.00507343
89 5 6.6924 9.52978 5.29557 0.00397105 0.00127116 0.000682464
93 5 6.63405 7.58078 7.2268 0.00279119 -0.00407018 -0.0027779
117 5 4.63534 9.07192 6.15411 -7.96563e-05 0.001063 -0.00212869