# Position data file
 
308 atoms
5 atom types
 
    0.000000000    11.897069931 xlo xhi
    0.000000000    15.009448051 ylo yhi
    0.000000000    13.739188351 zlo zhi
    0.000000000    -2.816105321     0.000000000 xy xz yz
 
Masses
 
1    26.982000000
2    12.011000000
3     1.008000000
4    14.007000000
5    15.999000000
 
Atoms
 
1 1 0     4.596932550     7.506783318     6.983826414
2 1 0     5.726307816     0.116683623     0.097579173
3 1 0     7.465523579     6.518206835     5.871451256
4 1 0     1.563196177     8.405788717     7.600702448
5 1 0     2.926926321    14.260964032     1.104205208
6 1 0     5.940560403     1.012188657    12.851933784
7 1 0    -1.281624678     6.569876910     6.991895581
8 1 0    -0.126423676     0.285010834    -0.039611776
9 2 0     4.939598796     5.433815193     5.049451517
10 2 0     3.927036918     9.664404681     8.771872378
11 2 0     5.327389793    13.192246104     2.253563496
12 2 0     3.494850490     2.160422956    11.876691366
13 2 0     9.815007469     5.878934327     4.403700862
14 2 0    -1.148677752     8.746102047     9.124906760
15 2 0     0.503115442    13.853371200     2.469992538
16 2 0     8.443399152     1.658498107    11.383298656
17 2 0     4.031431479     1.749635928     1.824170823
18 2 0     4.751554162    13.683728864    11.715259772
19 2 0     6.107268216     8.852965603     4.846382333
20 2 0     2.866291557     6.239645297     9.002390208
21 2 0     4.960273473     3.692831321     3.213754201
22 2 0     3.931994446    11.499478830    10.608503251
23 2 0     5.212633512    11.122389465     3.847192983
24 2 0     3.612260953     4.068615139    10.112873782
25 2 0    10.607866535     2.723313515     0.664271376
26 2 0    -1.750951357    11.950007178    13.591676740
27 2 0     0.039532003    10.093371461     5.697150343
28 2 0     9.038015457     4.434346526     7.312962140
29 2 0     9.679411713     4.291606238     2.432077009
30 2 0    -0.382028917    10.568128415    12.029814447
31 2 0     0.739407828    12.011988573     4.147419816
32 2 0     8.220040063     2.972497190     9.241846653
33 2 0     4.334303336     4.619523863     4.020112879
34 2 0     4.493355560    10.687877194     9.647220509
35 2 0     5.849892813    12.089622433     3.069284265
36 2 0     2.977887428     3.225224881    11.034391976
37 2 0    10.689070422     3.669729064     1.729172914
38 2 0    -1.655257647    11.155853777    12.385924227
39 2 0    -0.118323970    11.044654035     4.631889686
40 2 0     9.182598922     3.605477321     8.467205310
41 2 0    10.373762298     4.981781171     3.436429619
42 2 0    -1.432639753     9.662489770    10.224469413
43 2 0    -0.063761953    12.811340899     3.314064554
44 2 0     8.925021329     2.568671108    10.375061649
45 2 0     3.912017387     3.015801244     2.559557507
46 2 0     4.913210212    12.459675502    10.919825767
47 2 0     6.189792059    10.142190305     4.113114334
48 2 0     2.682031480     5.037889663     9.779145977
49 3 0     6.596412521     6.651202547     8.141702913
50 3 0     2.816612857     7.884220248     5.561684020
51 3 0     1.742562316    13.011751537    13.207910209
52 3 0     7.801353390     0.509836639     1.255364474
53 3 0     8.657885530     7.820750044     7.485929127
54 3 0     0.795698684     6.874013733     5.883536267
55 3 0    -0.759914744     0.008255473    12.825306290
56 3 0     9.613193935    14.102669025     0.299145198
57 3 0     0.905530390     3.581944412     2.100428886
58 3 0     8.224921652    11.119786453    11.893110605
59 3 0     9.926137458    10.406261936     3.888184674
60 3 0    -0.579859662     3.691448025     8.743876869
61 3 0     2.283770750     5.084820869     4.254313365
62 3 0     6.432334389    10.674687726     8.826255543
63 3 0     7.872066173    12.206758821     2.404309916
64 3 0     0.978386984     3.123757036    11.657537134
65 3 0     6.016790934     3.465646293     3.145002589
66 3 0     2.929426288    11.430998166    11.008398619
67 3 0     4.188201566    11.089233836     4.180771607
68 3 0     4.666999949     4.064722881     9.860393843
69 3 0     8.610307694     4.278177701     2.263094955
70 3 0     0.488651140    11.206328428    12.219817426
71 3 0     1.776993081    12.167094680     4.401788731
72 3 0     7.191190865     2.736172841     9.014415298
73 3 0    11.618584778    13.574789972     7.690701086
74 3 0     1.108684521    13.644401267     8.463808116
75 3 0     8.987967780    13.487287557     4.629992823
76 3 0     8.000210957    13.041391345     5.738535661
77 3 0     2.039188347    10.543062580     3.311489888
78 3 0     2.667433813     9.035024379     3.369555525
79 3 0     1.544579267     7.772609176     3.929868173
80 3 0     2.780177297     7.058045164     3.248848377
81 3 0     7.977067817     8.482764752    11.152115035
82 3 0     6.563581028     7.727199678    11.224352657
83 3 0     8.158988111     6.040260738     9.980667062
84 3 0     7.318759883     5.031313094     9.140221008
85 3 0     0.953943419     3.187645083     7.187066824
86 3 0     1.702149736     2.120996765     8.030072763
87 3 0    12.696678282    16.354190537     2.957832970
88 3 0    11.156018207     1.173919732     3.125051672
89 3 0     0.560989990     5.581090247    12.886544635
90 3 0    11.161307449     6.652341718     1.231517640
91 3 0     1.345836669    14.421689167     5.809121145
92 3 0     2.625861300    13.343162102     5.935172528
93 3 0     5.413241292     2.256613997     7.621859013
94 3 0     4.666648970     2.498973048     9.007189520
95 3 0     2.324466372    13.803073149     9.880087652
96 3 0     3.173342944    13.781858364     8.611778872
97 3 0     3.928369560     9.261622210     0.501215764
98 3 0     3.352320219     7.454262152    13.059993607
99 3 0    10.254212304    11.968732030     6.356891787
100 3 0    10.915968227    13.373223150     5.910819383
101 3 0    10.850502818     5.885587762     9.479357955
102 3 0     9.720256354     5.229987457    11.382380268
103 3 0     9.845738942     6.751248233    11.264574794
104 3 0    10.035628194     8.122339704    13.207423600
105 3 0    11.829708421    13.207302561    11.896794092
106 3 0    11.631845885     9.617473904    12.573779908
107 3 0    11.069388897     9.342602054     7.116119193
108 3 0    12.309450676     6.240666722     8.834879234
109 3 0     6.620669209     3.987980858    12.279528214
110 3 0     6.652262477     5.033638503    11.045643378
111 3 0     2.989040945     0.585478673     5.229497249
112 3 0     3.128904885     1.389263607     3.936909579
113 3 0     9.431715562    14.106882000     8.690287754
114 3 0     8.122471792    13.772178282     9.365525702
115 3 0     9.333597230    -0.594563672     3.102976026
116 3 0     9.722119380     0.188894422     1.849912131
117 3 0     9.644706160     6.481440779     1.853490278
118 3 0     8.793045581     8.075841600     1.029115801
119 3 0     7.457159074     7.834297161     1.755954782
120 3 0     6.633746666     9.873680788    15.498244224
121 3 0    11.725210681    11.357179185     8.180155827
122 3 0     1.226721774    11.218305430     8.875804740
123 3 0     2.586062463    11.557964715     7.052076160
124 3 0     4.001626820    12.261129179     6.887636425
125 3 0     4.042068376     4.115644660     0.173187985
126 3 0     2.585339367     4.547314342     0.565764254
127 3 0     4.697889664     2.378296035     5.587800701
128 3 0     5.891634569     3.422711595     5.835540941
129 3 0     7.253332593     6.103074522     0.882041580
130 3 0     6.322307679     5.975150750    13.276816259
131 3 0     4.852267816     7.403395764     9.888890652
132 3 0     4.470860478     7.076604624    11.353756509
133 3 0     2.840694626    15.189729152     7.074832347
134 3 0     3.992762571     1.021720226     7.952424278
135 3 0     5.281339401    10.126794649    13.022138465
136 3 0     6.473223963     9.279096497    12.266142583
137 3 0     8.488830465    12.751687256    13.011558771
138 3 0     8.094909423    12.294999858     0.431542041
139 3 0     6.677000272    14.429687195     4.868125050
140 3 0     5.694352517     0.617956226     4.965689546
141 3 0     9.848092993     8.383328812     2.891762793
142 3 0     8.589046361     8.979128691     3.676981573
143 3 0    11.824144995     0.600800925     4.802072416
144 3 0    11.133161199     0.403240091     6.243838791
145 3 0    -2.213799196    10.234427769     0.214877489
146 3 0     1.421467482    11.445056830    13.706427325
147 3 0    11.393461906    15.109351208    10.425030546
148 3 0    10.880796053    13.039153317    10.675166010
149 3 0     5.783095763     6.795876197     2.066307358
150 3 0     5.198619354     8.186645317     1.544467410
151 3 0     1.407469410     6.969343491    12.599373656
152 3 0     1.087684900     5.545926704    10.996669435
153 3 0    11.381467495     7.690676596     4.070799913
154 3 0    11.972656591     8.250144281     2.694427429
155 3 0     1.213147050     9.428428809     1.595397660
156 3 0    -0.328708809     9.591282357     1.080025966
157 3 0     0.521802420     3.949173232     4.872372406
158 3 0     1.601256190     2.831785485     5.185691021
159 3 0    11.220402806     7.254995331    12.509340272
160 3 0     9.516108738    11.996756797     1.040523788
161 3 0     3.539087704    10.228352257     1.659357142
162 3 0     3.246029748    11.387813297    13.286853691
163 3 0     3.486332371     5.101042148    13.087023193
164 3 0     4.814936105     5.363579050    12.307866992
165 3 0     2.812475378     0.394971656    10.806384007
166 3 0     2.388842887     0.681053510     9.317899213
167 3 0     7.331469652    11.050434805     5.719983034
168 3 0     8.036737316    11.348916248     7.140930766
169 3 0     7.301726614    13.852662726    11.764522943
170 3 0     8.706183173    13.554444691    11.046458828
171 3 0     6.260595111    14.304331247     8.432473137
172 3 0     6.480355909     0.415437197     9.525255113
173 3 0     6.437602883    10.497038740     0.794829606
174 3 0     5.899526968     8.987140947    -0.818058877
175 3 0     7.957800279     1.379385008     2.968946622
176 3 0     7.748720183     2.200404299     4.213114148
177 3 0     3.683759716     6.797693492     1.688374555
178 3 0     2.135176581     6.700042637     1.134468675
179 3 0     8.958810807     0.949106354     7.602245955
180 3 0     9.019308170    14.800374402     6.558804133
181 3 0    11.814567496    -0.028864265     8.796265877
182 3 0    -0.244702072     1.515245395     9.822782736
183 3 0     6.215997884     4.808790642     1.200887862
184 3 0     5.985622300     3.202034291     0.724015321
185 3 0     9.438452931     2.621851041     5.571034140
186 3 0     8.018100425     3.023746301     6.035317720
187 3 0     9.021020198     6.675378900    -0.250320945
188 3 0     8.163675859     6.191734053    12.821163090
189 3 0     6.091869323    12.665739491     7.111238392
190 3 0     5.442805831    13.935244554     6.498890018
191 3 0     8.862899195    10.460493860     8.894290471
192 3 0     9.092920060    12.009890678     8.663730274
193 4 0    -0.031079626     3.956693893     2.328993277
194 4 0     9.173693547    10.792978061    11.668006111
195 4 0    10.539245354    11.266892507     4.093738311
196 4 0    -1.524548350     3.488043027     9.121769033
197 4 0     3.008396452     4.523135181     3.789153327
198 4 0     5.781585893    11.094133234     9.501311276
199 4 0     7.153836031    11.710346204     2.973853065
200 4 0     1.716403874     3.634827537    11.166202878
201 4 0     2.716000219     3.544777053     2.893694429
202 4 0     6.067307628    12.192604854    10.258938071
203 4 0     7.386093762    10.542679987     3.630522127
204 4 0     1.496477205     4.764742922    10.412042214
205 4 0    -0.190312631     4.791958647     3.369105596
206 4 0     9.257905942     9.881983789    10.654404997
207 4 0    10.540356518    12.398636524     3.311229836
208 4 0    -1.681968965     2.934681229    10.340233262
209 5 0     6.214335149     5.449569785     5.048188910
210 5 0     2.648157723     9.539730645     8.707591978
211 5 0     4.070969782    13.382096105     2.301201796
212 5 0     4.729794206     1.866308081    11.725654339
213 5 0     6.341701252     7.015331211     7.259382456
214 5 0     2.909369565     7.961094739     6.556710190
215 5 0     1.318661445    14.382483558    13.550451203
216 5 0     7.470418459     0.707974912     0.359879280
217 5 0     8.560037284     5.883095616     4.509856573
218 5 0    -0.032476142     8.970421774     8.500932522
219 5 0     1.753248939    14.011799757     2.552162222
220 5 0     7.188062357     1.502367670    11.470597037
221 5 0     8.915154256     7.225795408     6.760614807
222 5 0     0.407814898     7.175870688     6.721114006
223 5 0     1.585406307    -0.251194098    -0.103797067
224 5 0     7.151570682    15.032323673    13.836282971
225 5 0     2.970523017     1.045778253     1.735344599
226 5 0     5.799424389    14.413777554    11.817137061
227 5 0     7.133865426     8.095160895     4.814080679
228 5 0     1.839976685     7.011399469     8.893075013
229 5 0     9.511206935     2.605782406     0.014231583
230 5 0    -0.719424478    12.212306511    14.250332527
231 5 0     1.145652675     9.737822190     6.163111298
232 5 0     7.866006998     4.761653304     6.921034710
233 5 0     4.188892603     5.983309294     5.898815896
234 5 0     4.798526821     9.006103415     8.122861698
235 5 0     6.158380290    13.837148673     1.534346870
236 5 0     2.656975252     1.614008854    12.657666442
237 5 0     5.179174839     1.392732240     1.433677392
238 5 0     3.631504004    13.994259844    12.224758481
239 5 0     5.042442920     8.611881261     5.475139585
240 5 0     4.026216630     6.489225362     8.533619566
241 5 0    11.668432332     2.023333970     0.518151905
242 5 0    -2.958269981    12.362794582    13.909595073
243 5 0    -1.107988856     9.729503096     6.241991719
244 5 0    10.124539312     4.785409262     6.731117777
245 5 0    10.648139676     6.577609787     5.075896931
246 5 0    -2.021836096     7.926110916     8.794135364
247 5 0    -0.228123712    14.543960056     1.699363341
248 5 0     9.323740757     1.028615197    12.040068385
249 5 0     0.388862071    14.224761661     8.057442835
250 5 0     8.293768174    13.849515286     5.216930825
251 5 0     2.492403562     9.857781289     2.788198885
252 5 0     2.557855399     7.627206883     4.035634526
253 5 0     7.391695332     7.954194585    11.741186298
254 5 0     7.232286887     5.868600894     9.643194156
255 5 0     1.022762165     2.828520920     8.115121469
256 5 0    11.955891939     1.531127105     3.571169397
257 5 0     0.233952458     5.986449701     0.618503566
258 5 0     2.339208051    14.296144572     5.803088571
259 5 0     5.282370047     1.891345579     8.555578994
260 5 0     2.597472095    13.200694979     9.144061282
261 5 0     2.630174373     8.133482794    13.067758435
262 5 0    10.554701459    12.841752203     6.661379785
263 5 0     9.739832273     5.926263577    10.692023665
264 5 0    10.444475174     7.863423764    12.344703291
265 5 0    11.559561957    10.292963697    10.634608162
266 5 0    11.386259477     5.915143500     8.628794154
267 5 0     6.078601255     4.500176287    11.651052376
268 5 0     3.186210230     1.517939681     4.901091532
269 5 0     9.089897417    13.447855656     9.375284522
270 5 0     9.313078476     0.315107802     2.743464802
271 5 0    10.271985704     7.197761867     1.639534948
272 5 0     7.927474031     8.509123828     1.215427928
273 5 0     0.758042139    11.631998704     8.130371232
274 5 0     3.248163538    11.848731052     6.392493849
275 5 0     3.109162879     4.202518827    -0.190123229
276 5 0     5.550270282     2.538510986     6.077026273
277 5 0     6.905773736     5.841091904     1.757965647
278 5 0     4.936594989     7.747755735    10.803644509
279 5 0     3.031873634     0.776788091     7.857460580
280 5 0     6.208992048    10.150952816    12.655119963
281 5 0     8.894509463    12.738182152     0.807814452
282 5 0     5.722895354    14.652303519     5.019088721
283 5 0     9.562389175     8.878275216     3.702325307
284 5 0    11.648613067    -0.058321328     5.543839257
285 5 0     1.909007876    11.998099306    13.027575987
286 5 0    11.630912369    13.563721314    11.012416488
287 5 0     5.014298722     7.501318172     2.214593929
288 5 0     0.675450454     6.397257442    12.270928152
289 5 0    12.090288998     8.258014965     3.672989897
290 5 0     0.508597164     9.032931134     1.021597092
291 5 0     1.095711637     3.573436821     5.585180204
292 5 0    10.076290171    10.357420982     1.186644650
293 5 0     4.168834375    10.114426199     0.884168909
294 5 0     3.972002762     5.828517405    12.585469052
295 5 0     2.039237873     0.563907972    10.245915944
296 5 0     7.333355859    11.672070151     6.475725600
297 5 0     8.264308327    13.603381907    11.937746201
298 5 0     6.951411592    14.755843055     8.993014095
299 5 0     6.845303135    10.902773121     0.008165910
300 5 0     7.357633097     2.073700639     3.315397046
301 5 0     2.807575476     6.288145197     1.708788185
302 5 0     9.493930048     0.178141821     7.343928007
303 5 0    11.199906694     0.672289879     9.637562724
304 5 0     5.724134766     4.113623159     0.491425009
305 5 0     8.546608001     2.260061333     5.722750542
306 5 0     8.669156832     5.436257256    13.222129429
307 5 0     5.405956488    13.356811964     7.327674793
308 5 0     9.074069176    11.110802011     8.187485748
