ITEM: TIMESTEP
0
ITEM: NUMBER OF ATOMS
308
ITEM: BOX BOUNDS xy xz yz pp pp pp
-2.8161053210000002e+00 1.1897069931000001e+01 0.0000000000000000e+00
0.0000000000000000e+00 1.5009448051000000e+01 -2.8161053210000002e+00
0.0000000000000000e+00 1.3739188350999999e+01 0.0000000000000000e+00
ITEM: ATOMS id type x y z vx vy vz
57 3 0.90553 3.58194 2.10043 -0.0222936 -0.0141401 -0.0217411
87 3 0.799608 1.34474 2.95783 -0.00448562 0.00777327 -0.0198179
112 3 3.1289 1.38926 3.93691 0.0228273 0.00827337 -0.00356403
201 4 2.716 3.54478 2.89369 -0.00346967 0.00497903 0.000445573
225 5 2.97052 1.04578 1.73534 -0.00598167 -0.00128526 1.49921e-05
256 5 0.058822 1.53113 3.57117 0.00571738 0.0045254 0.00603233
60 3 -0.57986 3.69145 8.74388 0.00234596 -0.00403381 -0.0143639
85 3 0.953943 3.18765 7.18707 -0.0104881 0.00984416 -0.0227884
86 3 1.70215 2.121 8.03007 0.0168083 0.00454697 0.0113652
143 3 -0.0729249 0.600801 4.80207 -0.00617369 0.0170165 0.0269944
144 3 -0.763909 0.40324 6.24384 0.00406286 -0.0189815 -0.00909015
158 3 1.60126 2.83179 5.18569 0.0253116 -0.0204265 0.000986688
196 4 -1.52455 3.48804 9.12177 -0.002791 -0.00150914 -0.00309112
255 5 1.02276 2.82852 8.11512 0.00148308 -0.00617689 0.00315969
291 5 1.09571 3.57344 5.58518 -0.00375885 0.00249812 -0.00656061
55 3 -0.759915 0.00825547 12.8253 0.0137163 0.0036295 0.00742581
64 3 0.978387 3.12376 11.6575 0.00771314 -0.00594651 -0.0217375
147 3 -0.503608 0.0999032 10.425 -0.00615809 0.00699098 0.0148977
182 3 -0.244702 1.51525 9.82278 -0.00986143 -0.0263187 0.0030027
208 4 -1.68197 2.93468 10.3402 0.003234 0.00631507 -0.00500283
303 5 -0.697163 0.67229 9.63756 -0.00169078 0.00332319 -0.00430611
61 3 2.28377 5.08482 4.25431 -0.0236165 -0.0231276 -0.0200209
80 3 2.78018 7.05805 3.24885 0.000440442 0.000417594 0.00823209
126 3 2.58534 4.54731 0.565764 0.0150971 0.00609245 0.00247986
178 3 2.13518 6.70004 1.13447 0.0125873 -0.0147621 -0.0168317
193 4 -0.0310796 3.95669 2.32899 0.000359759 -0.00466769 0.000616228
197 4 3.0084 4.52314 3.78915 0.00661312 -0.00195244 -0.000920069
205 4 -0.190313 4.79196 3.36911 -0.00523819 0.00446463 0.00587265
257 5 0.233952 5.98645 0.618504 0.00614641 -0.00424033 -0.00488956
301 5 2.80758 6.28815 1.70879 -0.00623905 -0.00632417 0.00262566
7 1 -1.28162 6.56988 6.9919 0.00368102 0.00506575 0.0041687
54 3 0.795699 6.87401 5.88354 0.003792 0.00451314 -0.0124203
108 3 0.412381 6.24067 8.83488 0.0172336 0.0154345 0.0221642
157 3 0.521802 3.94917 4.87237 -0.00190595 0.00346763 0.0105923
222 5 0.407815 7.17587 6.72111 0.00493306 0.0033217 -0.00191395
228 5 1.83998 7.0114 8.89308 -0.000989885 -0.00294933 -0.00631696
266 5 -0.51081 5.91514 8.62879 -0.00223363 -0.000369178 0.000627738
89 3 0.56099 5.58109 12.8865 0.0165913 0.00661437 0.00411604
101 3 -1.04657 5.88559 9.47936 -0.0016871 -0.0225016 -0.0124866
102 3 -2.17681 5.22999 11.3824 -0.0114417 -0.00329506 -0.0181299
103 3 -2.05133 6.75125 11.2646 -0.0200997 -0.0195827 0.0195223
152 3 1.08768 5.54593 10.9967 0.023245 0.0013179 -0.00402229
159 3 -0.676667 7.255 12.5093 -0.0120068 -0.0221766 0.00204361
204 4 1.49648 4.76474 10.412 0.00247944 -0.00599257 0.00376479
263 5 -2.15724 5.92626 10.692 0.00580947 -0.00646778 -0.00458511
275 5 0.293058 4.20252 13.5491 0.00462032 -0.00241091 0.00483837
288 5 0.67545 6.39726 12.2709 -0.00501583 0.00154997 0.000768345
77 3 2.03919 10.5431 3.31149 0.0214959 0.0189181 0.0117851
78 3 2.66743 9.03502 3.36956 0.0249176 0.00389332 -0.0252318
79 3 1.54458 7.77261 3.92987 0.0239614 0.00297705 -0.00910218
153 3 -0.515602 7.69068 4.0708 0.0181244 0.00765981 -0.0201155
154 3 0.0755867 8.25014 2.69443 0.000817478 0.0183309 0.00165782
155 3 1.21315 9.42843 1.5954 -0.00825081 0.0245208 -0.00844418
161 3 3.53909 10.2284 1.65936 0.0154505 0.00769571 -0.0159331
251 5 2.4924 9.85778 2.7882 -9.65493e-05 -0.00178636 0.000744161
252 5 2.55786 7.62721 4.03563 0.00351423 0.00313446 -0.00402155
289 5 0.193219 8.25801 3.67299 -0.000210299 0.000661056 0.00554655
290 5 0.508597 9.03293 1.0216 0.00458348 -0.00620857 0.00392874
4 1 1.5632 8.40579 7.6007 -0.00544829 0.00470401 -0.000527949
14 2 -1.14868 8.7461 9.12491 -0.000343642 0.00263934 -0.00176118
27 2 0.039532 10.0934 5.69715 -0.00757461 -0.0011784 -0.00232152
39 2 -0.118324 11.0447 4.63189 -0.00392998 -0.00645061 -0.00375919
50 3 2.81661 7.88422 5.56168 -0.00274551 0.00153879 0.00427559
107 3 -0.827681 9.3426 7.11612 -0.0185321 0.0169501 0.00155887
122 3 1.22672 11.2183 8.8758 -0.0116194 0.00611288 0.0189822
218 5 -0.0324761 8.97042 8.50093 -0.000878198 0.000954859 -0.00619067
231 5 1.14565 9.73782 6.16311 -0.00666971 0.00230601 0.00515241
243 5 -1.10799 9.7295 6.24199 0.0058843 0.00695117 0.00264562
30 2 -0.382029 10.5681 12.0298 0.00638068 -0.00301801 -0.00629091
38 2 -1.65526 11.1559 12.3859 0.00221809 0.00789594 0.00564265
42 2 -1.43264 9.66249 10.2245 -0.0014183 -0.00602715 -0.00386282
70 3 0.488651 11.2063 12.2198 0.0199248 -0.0198669 -0.0188386
104 3 -1.86144 8.12234 13.2074 -0.0182589 -0.0224075 -0.0103754
106 3 -0.265224 9.61747 12.5738 0.0183447 0.00612951 0.026105
264 5 -1.45259 7.86342 12.3447 -0.00637411 -0.00667602 -0.00414035
265 5 -0.337508 10.293 10.6346 0.00315597 -0.00197947 -0.00439206
5 1 2.92693 14.261 1.10421 -0.00293542 -0.00295676 0.00154954
15 2 0.503115 13.8534 2.46999 0.00635713 -0.00432714 0.00520033
31 2 0.739408 12.012 4.14742 0.00122115 -0.0043143 0.000156693
43 2 -0.063762 12.8113 3.31406 0.00134449 0.00135014 -0.00244199
71 3 1.77699 12.1671 4.40179 -0.000865025 0.0122474 0.00337283
219 5 1.75325 14.0118 2.55216 -4.72788e-05 0.00591212 -2.61897e-05
230 5 2.09668 12.2123 0.511144 -0.00105564 -0.000601107 -0.000553228
247 5 -0.228124 14.544 1.69936 0.00047346 -0.00652602 0.00104744
73 3 -0.278485 13.5748 7.6907 -0.000126257 0.00877559 -0.00612549
74 3 1.10868 13.6444 8.46381 0.0229571 0.0102823 -0.0123343
91 3 1.34584 14.4217 5.80912 0.0181736 0.0172448 -0.0040876
92 3 2.62586 13.3432 5.93517 0.00997785 -0.0199199 0.0177123
100 3 -0.981102 13.3732 5.91082 -0.0163419 0.00351391 0.0258629
121 3 -0.171859 11.3572 8.18016 0.0217516 0.0134234 -0.00469173
181 3 -0.0825024 14.9806 8.79627 -0.0106401 0.014778 -0.00766049
249 5 0.388862 14.2248 8.05744 -0.00370697 -0.000653123 0.000298025
258 5 2.33921 14.2961 5.80309 0.00420815 0.0025779 -0.0056545
262 5 -1.34237 12.8418 6.66138 -0.00292769 -0.00221213 -0.00419064
273 5 0.758042 11.632 8.13037 0.00402836 0.00268751 0.00436821
284 5 -0.248457 14.9511 5.54384 0.000825459 0.00271141 -0.00416594
26 2 -1.75095 11.95 13.5917 -0.00559696 0.00310929 0.00634851
105 3 -0.0673615 13.2073 11.8968 0.00975631 0.0153204 0.0104461
148 3 -1.01627 13.0392 10.6752 -0.0103719 0.000556968 0.0083164
223 5 -1.2307 14.7583 13.6354 -0.00106175 0.00609816 -0.0045707
286 5 -0.266158 13.5637 11.0124 -0.00189592 0.00118687 -0.00364573
2 1 5.72631 0.116684 0.0975792 0.000232673 -0.000880662 0.0021101
17 2 4.03143 1.74964 1.82417 0.00576514 0.00384231 0.00142783
21 2 4.96027 3.69283 3.21375 0.00452167 -0.001623 0.00527555
45 2 3.91202 3.0158 2.55956 0.00281844 -0.00153222 0.000422974
65 3 6.01679 3.46565 3.145 -0.0238579 0.00596416 0.0252065
184 3 5.98562 3.20203 0.724015 0.00760116 0.0186122 -0.00964958
216 5 7.47042 0.707975 0.359879 0.00639744 0.00345335 -0.00428054
237 5 5.17917 1.39273 1.43368 -0.000695461 -0.00425359 0.00470965
93 3 5.41324 2.25661 7.62186 0.012396 -0.0150047 -0.00870647
94 3 4.66665 2.49897 9.00719 0.00527733 0.0195181 0.0184566
111 3 2.98904 0.585479 5.2295 0.000901915 0.0211539 0.00123833
127 3 4.69789 2.3783 5.5878 0.0258391 0.0209103 -0.0066519
128 3 5.89163 3.42271 5.83554 0.000211688 0.0233609 -0.000753874
133 3 2.84069 0.180281 7.07483 -0.0240139 -0.000495545 0.0226201
134 3 3.99276 1.02172 7.95242 0.0249026 0.0247924 -0.0201466
140 3 5.69435 0.617956 4.96569 7.7576e-05 0.00275981 -0.0105452
259 5 5.28237 1.89135 8.55558 0.000668712 -0.00648745 0.00678624
268 5 3.18621 1.51794 4.90109 -0.00693378 -0.00589002 -0.0019905
276 5 5.55027 2.53851 6.07703 -0.00220019 0.00104691 -0.00415382
279 5 3.03187 0.776788 7.85746 0.000482657 -0.00236017 -0.0036906
12 2 3.49485 2.16042 11.8767 0.000114657 0.00428588 0.00796675
36 2 2.97789 3.22522 11.0344 0.00673468 -0.00259891 -0.000635136
165 3 2.81248 0.394972 10.8064 0.0113204 -0.00837309 -0.0047238
166 3 2.38884 0.681054 9.3179 -0.00592294 -0.0174847 -0.0192159
200 4 1.7164 3.63483 11.1662 0.0044838 -0.00197654 0.00313366
212 5 4.72979 1.86631 11.7257 -0.00631768 -0.00163051 -0.00520506
236 5 2.65698 1.61401 12.6577 -0.00281847 0.00131329 0.0017169
295 5 2.03924 0.563908 10.2459 0.00658278 0.00102693 0.00187286
33 2 4.3343 4.61952 4.02011 -0.00678015 0.000863422 0.00738603
125 3 4.04207 4.11564 0.173188 0.0227568 0.0212733 -0.00661861
129 3 7.25333 6.10307 0.882042 -0.0133665 0.00370282 -0.0131373
149 3 5.7831 6.79588 2.06631 0.0138273 0.0174273 0.0141561
177 3 3.68376 6.79769 1.68837 -0.00806383 0.00754402 -0.00507922
183 3 6.216 4.80879 1.20089 -0.0113711 -0.0151682 0.0205707
277 5 6.90577 5.84109 1.75797 -0.00440387 0.0044944 0.00454845
287 5 5.0143 7.50132 2.21459 0.0029574 -0.00308231 0.000998291
304 5 5.72413 4.11362 0.491425 0.00659375 -0.00598491 0.00283418
9 2 4.9396 5.43382 5.04945 -0.00674568 -0.00368247 -0.00118884
20 2 2.86629 6.23965 9.00239 -0.00273002 -0.00643451 -0.00145332
209 5 6.21434 5.44957 5.04819 -0.00363903 0.00641936 0.00663214
213 5 6.3417 7.01533 7.25938 -0.00693394 0.00522633 0.000301505
233 5 4.18889 5.98331 5.89882 -0.00588377 0.00324086 0.00670901
240 5 4.02622 6.48923 8.53362 0.00605288 -0.00382594 0.000136554
24 2 3.61226 4.06862 10.1129 -0.00306789 -0.00401914 0.00566578
48 2 2.68203 5.03789 9.77915 0.00749801 -0.00306813 0.00352482
68 3 4.667 4.06472 9.86039 -0.0182944 -0.0185655 0.0113935
98 3 3.35232 7.45426 13.06 -0.0228359 0.0239552 0.018373
131 3 4.85227 7.4034 9.88889 -0.00387605 0.0117915 0.0226765
132 3 4.47086 7.0766 11.3538 -0.00757903 -0.015379 0.0186339
151 3 1.40747 6.96934 12.5994 -0.0135364 -0.0188441 0.0120767
163 3 3.48633 5.10104 13.087 0.0169496 -0.0179251 -0.0111135
164 3 4.81494 5.36358 12.3079 0.0239141 0.0245278 0.000349576
294 5 3.972 5.82852 12.5855 0.00501649 -0.00275016 0.00486655
23 2 5.21263 11.1224 3.84719 0.00372338 -0.00482693 0.000589349
47 2 6.18979 10.1422 4.11311 0.00557646 0.0045159 0.00767894
67 3 4.1882 11.0892 4.18077 0.0164168 0.0156803 0.013147
97 3 3.92837 9.26162 0.501216 0.00972367 0.0116005 0.0263348
119 3 7.45716 7.8343 1.75595 -0.0157914 -0.00438328 -0.00489507
150 3 5.19862 8.18665 1.54447 0.00112348 -0.0137296 0.0137955
173 3 6.4376 10.497 0.79483 -0.00325229 -0.0179738 -0.0126383
293 5 4.16883 10.1144 0.884169 -0.00165218 -0.00424038 -0.00572746
299 5 6.8453 10.9028 0.00816591 0.00444657 0.00342068 -0.00656151
1 1 4.59693 7.50678 6.98383 -0.00443126 -0.000799639 -0.00487785
10 2 3.92704 9.6644 8.77187 -0.000554109 0.000186129 0.00199918
19 2 6.10727 8.85297 4.84638 -0.00117378 0.000587321 0.00646711
210 5 2.64816 9.53973 8.70759 -0.0035296 -0.000363421 0.00167975
214 5 2.90937 7.96109 6.55671 0.00200642 -0.0022598 0.00145131
234 5 4.79853 9.0061 8.12286 0.00301811 0.00539111 -0.00593867
239 5 5.04244 8.61188 5.47514 -0.00396162 -0.000839556 -0.00193223
34 2 4.49336 10.6879 9.64722 -0.00758208 -0.00042658 -0.00679466
174 3 3.08342 8.98714 12.9211 -9.83984e-05 -0.0132736 -0.00283255
198 4 5.78159 11.0941 9.50131 0.0064572 -0.00678891 0.00529566
261 5 2.63017 8.13348 13.0678 -0.00220072 0.00596891 -0.00274875
278 5 4.93659 7.74776 10.8036 0.00641573 -0.00353318 -0.00186667
11 2 5.32739 13.1922 2.25356 0.00509357 -0.000174873 -0.00558396
35 2 5.84989 12.0896 3.06928 -0.00676133 0.00162825 0.000509184
199 4 7.15384 11.7103 2.97385 0.00510248 0.00626422 0.00253159
211 5 4.07097 13.3821 2.3012 0.00376656 0.00531553 -0.00453386
235 5 6.15838 13.8371 1.53435 -0.00341442 -0.00608156 0.00555506
96 3 3.17334 13.7819 8.61178 -0.00806533 -0.0176542 0.0199258
123 3 2.58606 11.558 7.05208 0.00203785 -0.00744784 0.0210094
124 3 4.00163 12.2611 6.88764 -0.027224 -0.024367 0.0123489
139 3 6.677 14.4297 4.86813 -0.0270748 -0.0227558 0.018483
189 3 6.09187 12.6657 7.11124 -0.021773 0.0210211 0.0026503
190 3 5.44281 13.9352 6.49889 0.00334808 0.00628203 -0.025183
260 5 2.59747 13.2007 9.14406 0.00222248 0.00556297 -0.00247617
274 5 3.24816 11.8487 6.39249 -0.000966619 0.00523043 0.000815818
282 5 5.7229 14.6523 5.01909 -0.00418974 -0.00641974 -0.00380564
307 5 5.40596 13.3568 7.32767 -0.00570946 0.0068528 0.00370732
18 2 4.75155 13.6837 11.7153 -0.00284542 -0.00494852 -0.00728539
22 2 3.93199 11.4995 10.6085 -0.0034982 0.00701168 -0.00655836
46 2 4.91321 12.4597 10.9198 -0.00615036 -0.00303493 -0.00663055
51 3 1.74256 13.0118 13.2079 -0.0260468 -0.0133516 -0.00725186
66 3 2.92943 11.431 11.0084 0.0249386 -0.0245225 0.0139626
95 3 2.32447 13.8031 9.88009 -0.00742141 0.0189021 0.0153905
146 3 1.42147 11.4451 13.7064 -0.00123694 0.0258445 0.0136112
162 3 3.24603 11.3878 13.2869 0.0228589 -0.00636837 0.0240717
215 5 1.31866 14.3825 13.5505 0.00664307 0.00245002 0.0053872
238 5 3.6315 13.9943 12.2248 -0.0051317 -0.00429638 -0.00345822
285 5 1.90901 11.9981 13.0276 -0.00297361 0.00548429 0.00142314
25 2 10.6079 2.72331 0.664271 0.0061241 -0.00710332 -0.00626409
37 2 10.6891 3.66973 1.72917 -0.0049716 0.00357548 -0.00146097
52 3 7.80135 0.509837 1.25536 -0.00564812 0.0256278 0.0208726
88 3 11.156 1.17392 3.12505 -0.00867412 -0.0086174 -0.0252841
116 3 9.72212 0.188894 1.84991 -0.0105005 0.0184802 0.00544075
175 3 7.9578 1.37939 2.96895 0.0223605 0.00597259 0.00350741
176 3 7.74872 2.2004 4.21311 -0.0265601 0.0208221 -0.01904
224 5 9.96768 0.0228756 0.0970946 0.00336253 -0.00331218 -0.00648633
229 5 9.51121 2.60578 0.0142316 -0.00337799 0.0046361 -0.00659587
241 5 11.6684 2.02333 0.518152 0.00532294 0.00666261 0.006736
270 5 9.31308 0.315108 2.74346 0.00106221 0.00295614 0.00695525
300 5 7.35763 2.0737 3.3154 0.00217545 -0.00551627 0.00364873
40 2 9.1826 3.60548 8.46721 0.00723921 0.00282179 0.00322217
72 3 7.19119 2.73617 9.01442 -0.000616206 -0.000313131 -0.0165309
179 3 8.95881 0.949106 7.60225 0.00890626 0.000642804 -0.019808
185 3 9.43845 2.62185 5.57103 0.0062008 0.0154006 -0.00354445
186 3 8.0181 3.02375 6.03532 -0.0128574 0.0087981 -0.00905616
302 5 9.49393 0.178142 7.34393 -0.000214497 -0.00153269 -0.00190829
305 5 8.54661 2.26006 5.72275 0.00415047 0.00394251 -0.000632246
6 1 5.94056 1.01219 12.8519 -0.000129424 -0.00100505 -0.00370367
8 1 8.95454 0.285011 13.6996 -0.00070727 0.00522207 -0.000784265
16 2 8.4434 1.6585 11.3833 -0.00524352 -0.00602895 -0.00251706
32 2 8.22004 2.9725 9.24185 0.000180032 -0.00160519 0.00487067
44 2 8.92502 2.56867 10.3751 0.00511804 0.000810406 5.82622e-05
172 3 6.48036 0.415437 9.52526 -0.0132076 0.00593752 0.0133262
220 5 7.18806 1.50237 11.4706 0.0047244 -0.003237 -0.000889702
248 5 9.32374 1.02862 12.0401 0.000614343 -0.00417511 -0.00266581
13 2 9.81501 5.87893 4.4037 4.81804e-05 0.00745033 -0.00373241
29 2 9.67941 4.29161 2.43208 0.00659754 -0.00353871 0.00064437
41 2 10.3738 4.98178 3.43643 -0.00227463 -0.0064151 -0.00661876
69 3 8.61031 4.27818 2.26309 -0.0198341 -0.0227392 0.0258253
90 3 11.1613 6.65234 1.23152 0.0160372 0.00928867 0.0105109
117 3 9.64471 6.48144 1.85349 0.000797223 0.00475654 -0.00714176
217 5 8.56004 5.8831 4.50986 -0.00109387 -0.000457291 -0.00359308
271 5 10.272 7.19776 1.63953 -0.0014096 -0.00177851 -0.00407356
3 1 7.46552 6.51821 5.87145 -0.00197161 0.00255755 -0.00434382
28 2 9.03802 4.43435 7.31296 -0.00586701 -0.00655014 -0.00383997
49 3 6.59641 6.6512 8.1417 0.0107687 -0.0200312 -0.00157324
84 3 7.31876 5.03131 9.14022 -0.0142683 -0.0078887 0.0199376
221 5 8.91515 7.2258 6.76061 -0.00109497 -0.00531815 -0.00291343
232 5 7.86601 4.76165 6.92103 -0.00196264 0.000997014 0.00497482
244 5 10.1245 4.78541 6.73112 -0.00659207 -0.0054473 0.000591919
245 5 10.6481 6.57761 5.0759 0.00166385 -0.00340856 0.000726661
83 3 8.15899 6.04026 9.98067 -0.0228192 -0.0221818 0.0243907
109 3 6.62067 3.98798 12.2795 -0.0110695 -0.0123552 0.0165801
110 3 6.65226 5.03364 11.0456 -0.00628665 0.0251193 0.0267122
130 3 6.32231 5.97515 13.2768 0.00160947 -0.0166228 -0.0219567
187 3 6.20491 6.67538 13.4889 0.0112678 -0.0204162 0.0105874
188 3 8.16368 6.19173 12.8212 -0.00305124 -0.0162742 0.00808416
254 5 7.23229 5.8686 9.64319 -0.00102125 0.00315573 -0.00211637
267 5 6.0786 4.50018 11.6511 0.00206885 -0.00594237 0.0067979
306 5 8.66916 5.43626 13.2221 0.00524477 0.00538 -0.00127315
59 3 9.92614 10.4063 3.88818 -0.0202055 -0.000184013 -0.0253822
118 3 8.79305 8.07584 1.02912 -0.0072736 -0.00264448 0.0214639
120 3 9.44985 9.87368 1.75906 0.00273323 0.0225956 -0.00876383
141 3 9.84809 8.38333 2.89176 -0.0112836 -0.0146974 -0.0188612
142 3 8.58905 8.97913 3.67698 -0.000309014 -0.0123143 -0.00523915
145 3 9.68327 10.2344 0.214877 -0.0153328 0.0226248 -0.00782527
156 3 11.5684 9.59128 1.08003 0.00121199 0.00314007 0.00710328
203 4 7.38609 10.5427 3.63052 -0.00012737 0.00612 0.00437909
272 5 7.92747 8.50912 1.21543 0.00458566 0.00302957 -0.00316324
283 5 9.56239 8.87828 3.70233 -0.00463643 0.0064004 0.00254762
292 5 10.0763 10.3574 1.18664 0.00352056 5.96703e-05 0.00252388
53 3 8.65789 7.82075 7.48593 0.0151844 0.00243644 0.00195348
62 3 6.43233 10.6747 8.82626 0.0107403 -0.0058534 0.0178938
167 3 7.33147 11.0504 5.71998 -0.0234176 -0.00265237 -0.00221904
191 3 8.8629 10.4605 8.89429 -0.0261876 0.0165663 -0.0224977
227 5 7.13387 8.09516 4.81408 -0.0052014 7.56207e-05 -0.00286172
246 5 9.87523 7.92611 8.79414 -0.0034714 -0.00664617 0.00530713
308 5 9.07407 11.1108 8.18749 -0.00602729 -0.00230899 -0.00494709
58 3 8.22492 11.1198 11.8931 0.024705 0.0267894 -0.0113463
81 3 7.97707 8.48276 11.1521 0.013237 0.0104056 -0.0111983
82 3 6.56358 7.7272 11.2244 0.0146876 -0.0130522 0.0132893
135 3 5.28134 10.1268 13.0221 0.0228027 -0.0235551 -0.0140675
136 3 6.47322 9.2791 12.2661 0.00146129 -0.00130655 0.0104698
194 4 9.17369 10.793 11.668 0.00563156 -0.000835923 0.00110416
206 4 9.25791 9.88198 10.6544 -0.00060779 -0.00185861 -0.00222263
253 5 7.3917 7.95419 11.7412 0.00356351 -0.00274808 -0.00131843
280 5 6.20899 10.151 12.6551 0.000859905 -0.00629918 -0.0011371
56 3 9.61319 14.1027 0.299145 0.0259309 -0.0146656 0.0249542
63 3 7.87207 12.2068 2.40431 0.0119563 0.00272253 0.0166781
115 3 9.3336 14.4149 3.10298 0.0113498 -0.00458708 0.00175168
138 3 8.09491 12.295 0.431542 0.00651753 0.000316816 0.00312817
160 3 9.51611 11.9968 1.04052 -0.0066764 0.0113673 -0.0267654
195 4 10.5392 11.2669 4.09374 -0.00622869 0.00148651 0.00267984
207 4 10.5404 12.3986 3.31123 0.00480136 0.00147958 0.00305146
242 5 11.7549 12.3628 0.170407 0.00554394 0.00187965 0.00400904
281 5 8.89451 12.7382 0.807814 -0.00243066 -0.00279739 0.00410525
75 3 8.98797 13.4873 4.62999 -0.0122223 0.00560699 0.0143712
76 3 8.00021 13.0414 5.73854 0.0200039 0.000678291 -0.0225969
99 3 10.2542 11.9687 6.35689 0.00445758 0.0237135 -0.0129893
113 3 9.43172 14.1069 8.69029 -0.015209 -0.0217508 0.0221267
168 3 8.03674 11.3489 7.14093 -0.0164057 0.0201887 0.0125315
171 3 6.2606 14.3043 8.43247 0.0240171 0.0129166 -0.0260281
180 3 9.01931 14.8004 6.5588 -0.00567085 0.0249999 -0.0189656
192 3 9.09292 12.0099 8.66373 0.00119394 0.0265528 -0.0112898
250 5 8.29377 13.8495 5.21693 -0.0017924 0.00453991 0.00385411
296 5 7.33336 11.6721 6.47573 -0.00476086 -0.00661787 0.00237267
298 5 6.95141 14.7558 8.99301 0.00117938 0.0031942 0.00192792
114 3 8.12247 13.7722 9.36553 0.01167 -0.0142173 -0.0128645
137 3 8.48883 12.7517 13.0116 -0.0188207 0.014153 0.000628026
169 3 7.30173 13.8527 11.7645 -0.0130236 -0.00714637 0.0217974
170 3 8.70618 13.5544 11.0465 -0.0205647 0.00939422 -0.0131813
202 4 6.06731 12.1926 10.2589 0.00160365 0.00472037 -0.00664155
226 5 5.79942 14.4138 11.8171 -0.000465173 -0.00330138 -0.00273261
269 5 9.0899 13.4479 9.37528 -0.00239684 0.00495419 0.00702454
297 5 8.26431 13.6034 11.9377 0.000243134 0.00555607 0.00465308
ITEM: TIMESTEP
5
ITEM: NUMBER OF ATOMS
308
ITEM: BOX BOUNDS xy xz yz pp pp pp
-2.8161053210000002e+00 1.1897069931000001e+01 0.0000000000000000e+00
0.0000000000000000e+00 1.5009448051000000e+01 -2.8161053210000002e+00
0.0000000000000000e+00 1.3739188350999999e+01 0.0000000000000000e+00
ITEM: ATOMS id type x y z vx vy vz
57 3 0.894834 3.57467 2.0894 -0.0203229 -0.0149566 -0.0223452
87 3 0.797265 1.34881 2.94805 -0.00495779 0.00852352 -0.0192
112 3 3.14034 1.39362 3.93474 0.0228984 0.00911096 -0.00513279
201 4 2.71428 3.54725 2.89387 -0.00339686 0.00488745 0.000254095
225 5 2.96755 1.04515 1.73536 -0.00588468 -0.00121883 4.83592e-05
256 5 0.0616839 1.53337 3.57418 0.00570876 0.00444397 0.00598616
60 3 -0.57889 3.68946 8.73652 0.00141742 -0.00395543 -0.0149958
85 3 0.948856 3.19242 7.17583 -0.00978853 0.00905352 -0.0217707
86 3 1.71065 2.12323 8.03556 0.0171629 0.00443104 0.0105407
143 3 -0.0762008 0.609606 4.81558 -0.0068791 0.0182915 0.0268682
144 3 -0.761866 0.393881 6.23931 0.00395856 -0.0183166 -0.00880431
158 3 1.61376 2.82174 5.18607 0.0244036 -0.01935 0.0006929
196 4 -1.52606 3.4856 9.12141 -0.00323072 -0.00803619 0.00148013
255 5 1.0235 2.82545 8.11669 0.00145301 -0.00611227 0.00307147
291 5 1.09384 3.57469 5.58191 -0.00369093 0.0024664 -0.00650523
55 3 -0.75334 0.0102764 12.8288 0.0125923 0.00448085 0.00652772
64 3 0.981935 3.12065 11.6469 0.00635472 -0.00657095 -0.0206348
147 3 -0.50678 0.103133 10.4326 -0.00658174 0.00596587 0.0150042
182 3 -0.249292 1.50264 9.82423 -0.00823307 -0.0236063 0.00282713
208 4 -1.68034 2.93786 10.3377 0.00329998 0.00640809 -0.00497758
303 5 -0.698019 0.673926 9.63542 -0.00174334 0.00318596 -0.00425123
61 3 2.27187 5.07336 4.24457 -0.0239271 -0.0227119 -0.018926
80 3 2.78047 7.05782 3.25292 0.000784104 -0.00139933 0.0079697
126 3 2.59285 4.55027 0.567304 0.0148957 0.00575262 0.00374856
178 3 2.14145 6.69272 1.12616 0.012418 -0.014506 -0.0164694
193 4 -0.0309128 3.95436 2.32925 0.000291235 -0.00467168 0.000427833
197 4 3.01169 4.52218 3.78873 0.00652933 -0.00188167 -0.00077511
205 4 -0.192912 4.79418 3.3721 -0.00514954 0.00442013 0.00607734
257 5 0.237315 5.98463 0.616616 0.00733301 -0.00301796 -0.00260598
301 5 2.80447 6.28499 1.71009 -0.00615739 -0.00627588 0.00258233
7 1 -1.2797 6.5733 6.99336 0.00399838 0.00852553 0.0017756
54 3 0.797606 6.87632 5.87747 0.00377492 0.00476887 -0.0116997
108 3 0.420618 6.24854 8.84591 0.0153909 0.0159543 0.0218534
157 3 0.520984 3.95074 4.87767 -0.00148194 0.00282485 0.0104078
222 5 0.410299 7.17754 6.72012 0.00500542 0.00335093 -0.00208355
228 5 1.83949 7.00992 8.88993 -0.000960189 -0.00295476 -0.00627979
266 5 -0.511931 5.91493 8.62912 -0.00221693 -0.000471692 0.00068712
89 3 0.56925 5.5848 12.8882 0.0163779 0.00814209 0.00235234
101 3 -1.04738 5.87444 9.47287 -0.00164544 -0.0220866 -0.0133288
102 3 -2.18264 5.22808 11.3734 -0.0118399 -0.00455013 -0.0177992
103 3 -2.06134 6.74142 11.274 -0.0199146 -0.0196763 0.0179601
152 3 1.09912 5.54706 10.9946 0.0224457 0.00321735 -0.00438525
159 3 -0.682338 7.24404 12.5105 -0.0107433 -0.0215716 0.00238914
204 4 1.49777 4.76173 10.4139 0.00267725 -0.00604747 0.00384748
263 5 -2.15434 5.92304 10.6897 0.00577693 -0.00641246 -0.00451364
275 5 0.295385 4.20131 13.5515 0.00470353 -0.00242355 0.00488914
288 5 0.672897 6.398 12.2713 -0.00520719 0.00141632 0.00072103
77 3 2.05007 10.5525 3.3176 0.0221329 0.0185717 0.0125383
78 3 2.67986 9.03743 3.35683 0.0247887 0.00561196 -0.0255077
79 3 1.55641 7.77405 3.92562 0.0231669 0.00282272 -0.00788888
153 3 -0.506623 7.69437 4.06093 0.0174624 0.00688048 -0.0191846
154 3 0.0758724 8.25927 2.69505 0.00034866 0.0181671 0.000902049
155 3 1.20909 9.44083 1.59128 -0.00790597 0.0250568 -0.00798504
161 3 3.54682 10.2319 1.65137 0.0153385 0.00644063 -0.0158341
251 5 2.49236 9.8569 2.78855 -9.77507e-05 -0.00170259 0.000669422
252 5 2.55963 7.62876 4.03365 0.00359246 0.00309089 -0.00390341
289 5 0.193128 8.25834 3.67574 -0.000133689 0.000664523 0.00543804
290 5 0.510878 9.02982 1.02355 0.00452946 -0.00624728 0.00389737
4 1 1.56043 8.40814 7.60046 -0.00561997 0.00468975 -0.000434903
14 2 -1.14885 8.74741 9.12397 -0.00034971 0.00259115 -0.00198411
27 2 0.0358101 10.0928 5.69605 -0.00729771 -0.00115073 -0.00207015
39 2 -0.120276 11.0414 4.63 -0.00387703 -0.00656146 -0.00378923
50 3 2.81507 7.88493 5.56376 -0.00340657 0.00130731 0.00402395
107 3 -0.83679 9.35076 7.11743 -0.0178627 0.0156279 0.00381465
122 3 1.2206 11.2212 8.88531 -0.0128591 0.00535076 0.0189985
218 5 -0.0329014 8.9709 8.49783 -0.000826215 0.000955654 -0.00623194
231 5 1.14234 9.73898 6.16566 -0.00658513 0.00232725 0.00505461
243 5 -1.10513 9.73298 6.24332 0.00555087 0.00694391 0.0026606
30 2 -0.378892 10.5666 12.0266 0.0061657 -0.00294689 -0.00636985
38 2 -1.65408 11.1598 12.3887 0.00249843 0.00780539 0.00563025
42 2 -1.4333 9.65945 10.2225 -0.00120212 -0.00612507 -0.00405463
70 3 0.498725 11.1958 12.2104 0.0203623 -0.0222353 -0.018645
104 3 -1.87036 8.11097 13.2025 -0.0174519 -0.0230298 -0.00939622
106 3 -0.255326 9.62103 12.5861 0.0212098 0.00816326 0.0232564
264 5 -1.45579 7.86009 12.3426 -0.0064193 -0.00665901 -0.00411711
265 5 -0.335909 10.292 10.6325 0.00323617 -0.0018491 -0.00404879
5 1 2.92542 14.2595 1.10498 -0.00310315 -0.00298541 0.00156833
15 2 0.506292 13.8512 2.47254 0.00633349 -0.00419961 0.00497743
31 2 0.739993 12.0098 4.14752 0.00111357 -0.00435837 0.000222697
43 2 -0.0631142 12.812 3.31281 0.00125244 0.00125868 -0.00256076
71 3 1.77661 12.1731 4.40339 -0.000702674 0.0118448 0.00303745
219 5 1.75325 14.0147 2.55215 6.59784e-05 0.0058715 -5.48117e-06
230 5 2.09617 12.212 0.510862 -0.000965705 -0.000515853 -0.000570524
247 5 -0.227895 14.5407 1.69991 0.000443265 -0.00653431 0.00115542
73 3 -0.278807 13.5793 7.68769 -0.00117195 0.00917492 -0.00590718
74 3 1.11985 13.6496 8.45754 0.0215791 0.0106512 -0.0127639
91 3 1.35491 14.4301 5.8072 0.0179227 0.0163653 -0.00361466
92 3 2.63053 13.3335 5.94409 0.00857591 -0.0183681 0.0179179
100 3 -0.98932 13.375 5.92351 -0.0163745 0.00363903 0.0245561
121 3 -0.160994 11.3637 8.17813 0.0212904 0.0125322 -0.00340861
181 3 -0.087882 14.9875 8.79215 -0.0108673 0.0129527 -0.00877358
249 5 0.38705 14.2245 8.0576 -0.0035319 -0.000575167 0.000314627
258 5 2.34135 14.2974 5.80027 0.00436717 0.0025653 -0.00563306
262 5 -1.34383 12.8406 6.65931 -0.00292356 -0.00222906 -0.00405709
273 5 0.760077 11.6334 8.13255 0.00413665 0.00276859 0.00436062
284 5 -0.248028 14.9525 5.54175 0.000896983 0.00267811 -0.0042066
26 2 -1.75375 11.9516 13.5949 -0.00560431 0.0033077 0.00659101
105 3 -0.0622822 13.2152 11.902 0.0104941 0.0162571 0.010369
148 3 -1.02158 13.0394 10.6792 -0.0107929 0.000398561 0.00767905
223 5 -1.23118 14.7613 13.6331 -0.000861539 0.00600025 -0.00449955
286 5 -0.267099 13.5643 11.0106 -0.00186806 0.00114079 -0.0035169
2 1 5.72646 0.116244 0.0986274 0.000377221 -0.000878504 0.00208176
17 2 4.03427 1.75154 1.82494 0.00555047 0.00375196 0.00165354
21 2 4.9625 3.69198 3.21637 0.00434907 -0.001772 0.00519923
45 2 3.91342 3.01504 2.55972 0.00277312 -0.001498 0.00024293
65 3 6.00505 3.46875 3.1576 -0.0226539 0.00634292 0.0251413
184 3 5.98955 3.21124 0.719345 0.00826062 0.0177203 -0.00891388
216 5 7.4736 0.70969 0.35775 0.00632824 0.00340365 -0.00422006
237 5 5.17884 1.3906 1.43602 -0.000652677 -0.00428943 0.00467367
93 3 5.41961 2.24913 7.6176 0.0130282 -0.014955 -0.00816795
94 3 4.66956 2.50874 9.01648 0.00657031 0.0193323 0.0185271
111 3 2.98932 0.596029 5.23024 0.000152003 0.0207048 0.00180621
127 3 4.71065 2.38881 5.58463 0.0248146 0.0210371 -0.0062306
128 3 5.89154 3.43425 5.83515 -0.000681968 0.0224299 -0.000684979
133 3 2.82871 0.17991 7.0859 -0.023934 -0.00113217 0.0214428
134 3 4.00492 1.03376 7.94215 0.02332 0.0232576 -0.0209279
140 3 5.6944 0.619197 4.96059 0.000120802 0.00201257 -0.00982617
259 5 5.2827 1.88811 8.55896 0.000635076 -0.00643609 0.00675198
268 5 3.18275 1.51502 4.90009 -0.00689731 -0.00575281 -0.00201511
276 5 5.54918 2.53904 6.07493 -0.00214165 0.00108543 -0.00421467
279 5 3.0321 0.775632 7.85566 0.000432748 -0.00224781 -0.00349037
12 2 3.49496 2.16261 11.8807 0.00033406 0.00445188 0.00789408
36 2 2.98129 3.22393 11.034 0.00686337 -0.00259475 -0.000808803
165 3 2.81796 0.390943 10.8042 0.0106068 -0.00772016 -0.00398683
166 3 2.38607 0.672518 9.3081 -0.00518004 -0.0166623 -0.0198105
200 4 1.7186 3.63385 11.1677 0.00432155 -0.0019447 0.00300812
212 5 4.7266 1.86548 11.7231 -0.00644513 -0.00166676 -0.00511611
236 5 2.65557 1.61463 12.6585 -0.00279433 0.00116232 0.00174977
295 5 2.04251 0.56442 10.2469 0.00651113 0.00102058 0.00189842
33 2 4.33095 4.61997 4.02382 -0.00662361 0.0009271 0.00745036
125 3 4.05347 4.12604 0.169827 0.0227189 0.0202735 -0.006854
129 3 7.2468 6.105 0.875341 -0.0128574 0.00392361 -0.0134641
149 3 5.7893 6.80505 2.07349 0.0110094 0.0191428 0.0145804
177 3 3.6794 6.80134 1.68563 -0.00943255 0.00696366 -0.00587888
183 3 6.21007 4.80052 1.21075 -0.0123416 -0.0179189 0.0187976
277 5 6.90356 5.84332 1.76025 -0.00445929 0.00443404 0.00455868
287 5 5.01583 7.49972 2.21509 0.00316285 -0.00331187 0.00101439
304 5 5.72743 4.11068 0.492862 0.00656335 -0.00574529 0.00290939
9 2 4.93621 5.43197 5.04887 -0.0068285 -0.0036766 -0.00110533
20 2 2.86488 6.23647 9.00166 -0.00288228 -0.00626871 -0.00147835
209 5 6.21249 5.45278 5.05149 -0.00374828 0.00640261 0.00656885
213 5 6.33823 7.01795 7.25951 -0.00693634 0.00524433 0.000228753
233 5 4.18596 5.98491 5.90216 -0.00583834 0.00316355 0.00666345
240 5 4.02927 6.4873 8.53367 0.00614908 -0.00386717 8.78159e-05
24 2 3.61074 4.06656 10.1157 -0.00301096 -0.00419409 0.0058301
48 2 2.68573 5.03635 9.78089 0.00730122 -0.00310146 0.00346238
68 3 4.65784 4.05557 9.86601 -0.0180993 -0.0180295 0.0109948
98 3 3.34081 7.46622 13.069 -0.0228591 0.0235169 0.0178234
131 3 4.85042 7.40912 9.90012 -0.00355704 0.0109096 0.0217296
132 3 4.46716 7.06926 11.3628 -0.00700252 -0.0136963 0.017355
151 3 1.40105 6.96023 12.6055 -0.0119734 -0.0174333 0.012553
163 3 3.4947 5.09212 13.0813 0.0164968 -0.0177923 -0.0118027
164 3 4.82693 5.37547 12.3079 0.0239731 0.0230173 -0.000316299
294 5 3.97451 5.82714 12.5879 0.00500976 -0.0027656 0.00488491