LAMMPS (29 Oct 2020)
variable Tini   equal 300
variable nprint equal 5

units            real
newton           on

atom_style       charge
atom_modify      map array
atom_modify      sort 0 0.0

read_data        data.lammps
Reading data file ...
  triclinic box = (0.0000000 0.0000000 0.0000000) to (11.897070 15.009448 13.739188) with tilt (0.0000000 -2.8161053 0.0000000)
  3 by 4 by 3 MPI processor grid
  reading atoms ...
  308 atoms
  read_data CPU = 0.007 seconds
neighbor         1.0 bin
neigh_modify     delay 0 every 1 check no page 100000 one 10000

pair_style       chimesFF
pair_coeff       * * ../../../1-fit/ChIMES_params.txt

velocity         all create ${Tini} 12357
velocity         all create 300 12357
fix              1 all nvt temp ${Tini} ${Tini} 100
fix              1 all nvt temp 300 ${Tini} 100
fix              1 all nvt temp 300 300 100
thermo_style     custom time step temp etotal pe ke press vol density enthalpy pxx pyy pzz lx ly lz
thermo_modify    format float %20.15g flush yes
thermo           1
dump             dump_1 all custom ${nprint} dump_xyz_vxyz id type x y z vx vy vz
dump             dump_1 all custom 5 dump_xyz_vxyz id type x y z vx vy vz
atom_modify      sort 0 0.0

restart          ${nprint} restart.a restart.b
restart          5 restart.a restart.b

timestep         0.1
run              500
Neighbor list info ...
  update every 1 steps, delay 0 steps, check no
  max neighbors/atom: 10000, page size: 100000
  master list distance cutoff = 7
  ghost atom cutoff = 7
  binsize = 3.5, bins = 5 5 4
  1 neighbor lists, perpetual/occasional/extra = 1 0 0
  (1) pair chimesFF, perpetual
      attributes: full, newton on, ghost
      pair build: full/bin/ghost
      stencil: full/ghost/bin/3d
      bin: standard
Per MPI rank memory allocation (min/avg/max) = 3.855 | 3.857 | 3.859 Mbytes
Time Step Temp TotEng PotEng KinEng Press Volume Density Enthalpy Pxx Pyy Pzz Lx Ly Lz 
                   0        0                  300    -40676.3794039432    -40950.9120095482        274.532605605     96257.9534657167     2453.38561052904     1.80407843490206    -37232.2589888547     69937.5054797967     115936.675633739     102899.679283615         11.897069931         15.009448051         13.739188351 
                 0.1        1     299.628173117358    -40676.3798997532    -40950.5722433484     274.192343595247     96451.5296030873     2453.38561052904     1.80407843490206      -37225.33330867     70647.7684380974     115791.940194694     102914.880176471         11.897069931         15.009448051         13.739188351 
                 0.2        2     299.025847004706    -40676.3805974893    -40950.0217472275     273.641149738147     96379.0704191273     2453.38561052904     1.80407843490206    -37227.9266041682     71340.6574638125     115135.561397894     102660.992395676         11.897069931         15.009448051         13.739188351 
                 0.3        3     298.181657097583    -40676.3812748498    -40949.2498990719     272.868624222054     96058.0479662053     2453.38561052904     1.80407843490206    -37239.4135010461     72013.0892235154     114011.245692533     102149.808982568         11.897069931         15.009448051         13.739188351 
                 0.4        4      297.08421167486    -40676.3817428721    -40948.2460852561     271.864342384023      95512.579935367     2453.38561052904     1.80407843490206    -37258.9308766396      72662.246494874     112475.389606203     101400.103705024         11.897069931         15.009448051         13.739188351 
                 0.5        5     295.725149579501    -40676.3818878516    -40947.0025407083     270.620652856629     94771.5256400755     2453.38561052904     1.80407843490206    -37285.4460277585     73285.4248383733     110593.020067743      100436.13201411         11.897069931         15.009448051         13.739188351 
                 0.6        6     294.101041831122    -40676.3816697677    -40945.5160875178     269.134417750143     93866.4806082338     2453.38561052904     1.80407843490206    -37317.8284228355     73880.1275519715     108433.085601572     99286.2286711585         11.897069931         15.009448051         13.739188351 
                 0.7        7     292.214164065972    -40676.3810835305    -40943.7888030496     267.407719519061     92830.2933387566     2453.38561052904     1.80407843490206    -37354.9027337904     74444.1794770814      106064.61126487     97982.0892743187         11.897069931         15.009448051         13.739188351 
                 0.8        8     290.072633594432    -40676.3801295883    -40941.8281159729     265.447986384613     91695.7127343308     2453.38561052904     1.80407843490206    -37395.4972016452     74975.2744187407     103555.018283754     96556.8455004973         11.897069931         15.009448051         13.739188351 
                 0.9        9     287.690341484338    -40676.3788224647    -40939.6467526484     263.267930183625     90494.6585480371     2453.38561052904     1.80407843490206     -37438.469748564     75471.0648502916     100968.790795051     95044.1199987687         11.897069931         15.009448051         13.739188351 
                   1       10      285.08623273348    -40676.3772798845    -40937.2621675326     260.884887648119      89252.146768899     2453.38561052904     1.80407843490206    -37482.9254173667     75929.5289544698     98351.4134976153      93475.497854612         11.897069931         15.009448051         13.739188351 
                 1.1       11     282.284259542219    -40676.3753222348    -40934.6960998794     258.320777644678     87994.6722729263     2453.38561052904     1.80407843490206    -37527.9160387933     76348.4865234998     95754.1630354048     91881.3672598743         11.897069931         15.009448051         13.739188351 
                 1.2       12     279.314219616616    -40676.3729793585    -40931.9758476714     255.602868312923     86750.7208854171     2453.38561052904     1.80407843490206    -37572.4224166497     76727.0365115401     93233.1372364575     90291.9889082539         11.897069931         15.009448051         13.739188351 
                 1.3       13     276.211632923514    -40676.3703028614    -40929.1339671444     252.763664283013     85545.6979991355     2453.38561052904     1.80407843490206    -37615.5355947273     77064.3603134671      90837.863152429     88734.8705315106         11.897069931         15.009448051         13.739188351 
                 1.4       14     273.016823739525    -40676.3673616664    -40926.2074283171      249.84006665071     84401.7465867092     2453.38561052904     1.80407843490206     -37656.463363895     77360.0793890036     88610.2081645313     87234.9522065925         11.897069931         15.009448051         13.739188351 
                 1.5       15     269.773723657388    -40676.3642325183    -40923.2365101164     246.872277598086      83337.072649572     2453.38561052904     1.80407843490206    -37694.5543881158     77613.1733856464     86584.9716754634     85813.0728876064         11.897069931         15.009448051         13.739188351 
                 1.6       16     266.528492401549    -40676.3609990005    -40920.2635372904     243.902538289899     82366.5996257303     2453.38561052904     1.80407843490206    -37729.2747886809     77823.1279799384     84789.6491536676     84487.0217435849         11.897069931         15.009448051         13.739188351 
                 1.7       17     263.328065565889    -40676.3577446351    -40917.3315445308     240.973799895759     81501.8325543117     2453.38561052904     1.80407843490206    -37760.2129975165     77989.7330702932     83244.5107313478      83271.253861294         11.897069931         15.009448051         13.739188351 
                 1.8       18     260.218704548324    -40676.3545464314    -40914.4829430541     238.128396622697      80751.336794001     2453.38561052904     1.80407843490206    -37787.0626221338     78113.1523641818     81963.6138426705     82177.2441751507         11.897069931         15.009448051         13.739188351 
                 1.9       19     257.244637717277     -40676.351474224    -40911.7582764587     235.406802234794     80120.9663914003     2453.38561052904     1.80407843490206    -37809.6142739205     78193.2278185686     80955.8172758691     81213.8540797631         11.897069931         15.009448051         13.739188351 
                   2       20     254.446842853915    -40676.3485849981    -40909.1951008536     232.846515855505     79614.2793348405     2453.38561052904     1.80407843490206    -37827.7407046389     78230.2321739333     80225.3989356328     80387.2068949555         11.897069931         15.009448051         13.739188351 
                 2.1       21     251.862017222464     -40676.345923306     -40906.827042776     230.481119470048     79233.2597161787     2453.38561052904     1.80407843490206     -37841.370967811     78224.5923935168     79773.4485710618     79701.7381839576         11.897069931         15.009448051         13.739188351 
                 2.2       22     249.521674012388    -40676.3436110686    -40904.6830621404     228.339451071808     78975.8060525812     2453.38561052904     1.80407843490206    -37850.5803766503     78176.6911616719     79593.0442964456     79157.6826996263         11.897069931         15.009448051         13.739188351 
                 2.3       23     247.447594009552     -40676.342402443    -40902.7838448901     226.441442447102     78743.8324039791     2453.38561052904     1.80407843490206    -37858.8792112954     78085.8703031605     79481.6386091897     78663.9882995872         11.897069931         15.009448051         13.739188351 
                 2.4       24     245.649844850433    -40676.3414378162    -40901.1377443937     224.796306577511     78490.0253611963     2453.38561052904     1.80407843490206    -37867.9594912418     77952.4248114664     79339.9145993374     78177.7366727852         11.897069931         15.009448051         13.739188351 
                 2.5       25     244.130917956004    -40676.3407115938    -40899.7470349778     223.406323384007     78216.5804896972     2453.38561052904     1.80407843490206    -37877.7426533156      77777.547999296     79169.2612288465      77702.932240949         11.897069931         15.009448051         13.739188351 
                 2.6       26     242.887826919513    -40676.3402085066    -40898.6089684865     222.268759979834     77925.2235967912     2453.38561052904     1.80407843490206    -37888.1669326678     77562.7010219872     78970.8985038936     77242.0712644927         11.897069931         15.009448051         13.739188351 
                 2.7       27     241.912301299329    -40676.3399090595    -40897.7159570715     221.376048012022     77617.9134359714     2453.38561052904     1.80407843490206    -37899.1622253825     77309.3022190915     78746.3245902381     76798.1134985847         11.897069931         15.009448051         13.739188351 
                 2.8       28     241.191096511434    -40676.3397876784    -40897.0558549251     220.716067246703     77296.9464147063     2453.38561052904     1.80407843490206     -37910.646340168     77019.2875144194     78497.7150310474     76373.8366986521         11.897069931         15.009448051         13.739188351 
                 2.9       29     240.706405408768    -40676.3398140538    -40896.6123362628     220.272522208942     76964.6045954889     2453.38561052904     1.80407843490206    -37922.5375942617     76694.9086730605     78226.7791720133      75972.125941393         11.897069931         15.009448051         13.739188351 
                   3       30     240.436374241245     -40676.339949637    -40896.3653639792     220.025414342226     76622.6134222285     2453.38561052904     1.80407843490206    -37934.7742125374     76338.0461613507     77935.4003316716     75594.3937736631         11.897069931         15.009448051         13.739188351 
                 3.1       31     240.355697383717    -40676.3401581242    -40896.2917443734     219.951586249196      76273.256668779     2453.38561052904     1.80407843490206    -37947.2744450058     75951.0765765214     77626.0745774659     75242.6188523498         11.897069931         15.009448051         13.739188351 
                 3.2       32     240.436254659041     -40676.340398615    -40896.3657035265     220.025304911513     75918.9189772823     2453.38561052904     1.80407843490206    -37959.9529280021     75536.7146730592     77301.0988253318     74918.9434334559         11.897069931         15.009448051         13.739188351 
                 3.3       33     240.647434431702    -40676.3407549982    -40896.5593123539     220.218557355645     75555.6456842756     2453.38561052904     1.80407843490206    -37972.9512437191     75093.4630835804     76960.3879000701     74613.0860691765         11.897069931         15.009448051         13.739188351 
                 3.4       34     240.956308806645    -40676.3411067406    -40896.8423177195     220.501210978838      75177.870808722     2453.38561052904     1.80407843490206    -37986.4684230519      74618.853578419     76604.2205583728     74310.5382893743         11.897069931         15.009448051         13.739188351 
                 3.5       35     241.327888067493    -40676.3414952832    -40897.1827416709     220.841246387735     74795.6710792355     2453.38561052904     1.80407843490206    -38000.1439609569     74116.8780553346     76252.7701401152     74017.3650422567         11.897069931         15.009448051         13.739188351 
                 3.6       36     241.726005249241    -40676.3417563549    -40897.5473232334      221.20556687854     74413.7011594091     2453.38561052904     1.80407843490206    -38013.8111487756     73590.3684125978     75913.6549605182     73737.0801051114         11.897069931         15.009448051         13.739188351 
                 3.7       37     242.114982785487    -40676.3418087515    -40897.9033323519     221.561523600365     74034.5233357582     2453.38561052904     1.80407843490206    -38027.3782264035      73042.949075175       75588.57370406     73472.0472280397         11.897069931         15.009448051         13.739188351 
                 3.8       38     242.461165110483    -40676.3415656879    -40898.2198837406     221.878318052683      73659.272678671     2453.38561052904     1.80407843490206    -38040.8044941093     72477.7163144433     75276.1054225011     73223.9962990686         11.897069931         15.009448051         13.739188351 
                 3.9       39     242.734343523862    -40676.3409567265    -40898.4692627179     222.128305991416     73287.6071697472     2453.38561052904     1.80407843490206    -38054.1021189123     71897.8073874503     74971.6326118117     72993.3815099798         11.897069931         15.009448051         13.739188351 
                   4       40     242.908885209288    -40676.3399553973     -40898.627986001     222.288030603705     72917.6521017334     2453.38561052904     1.80407843490206    -38067.3381515791     71306.3966796573     74666.8537878046     72779.7058377382         11.897069931         15.009448051         13.739188351 
                 4.1       41     242.964138046169    -40676.3385996205    -40898.6771925751     222.338592954625     72546.5281816321     2453.38561052904     1.80407843490206    -38080.6156514576      70706.770191618     74351.3067398904     72581.5076133879         11.897069931         15.009448051         13.739188351 
                 4.2       42      242.88381928225    -40676.3369871838    -40898.6020797399     222.265092556167     72171.4767998274     2453.38561052904     1.80407843490206    -38094.0334196983     70102.1600432471     74014.7456130779     72397.5247431571         11.897069931         15.009448051         13.739188351 
                 4.3       43     242.654494348511    -40676.3352358597    -40898.3904711773     222.055235317535     71790.5447344127     2453.38561052904     1.80407843490206    -38107.6614605734     69496.0149497037     73649.1607546253     72226.4584989091         11.897069931         15.009448051         13.739188351 
                 4.4       44     242.263762802848    -40676.3334275359    -40898.0311010223     221.697673486458     71403.3655911444     2453.38561052904     1.80407843490206    -38121.5129655978     68891.3876703205     73251.0511237563     72067.6579793564         11.897069931         15.009448051         13.739188351 
                 4.5       45      241.69900225138    -40676.3315669234    -40897.5124231241     221.180856200667     71011.4956195787     2453.38561052904     1.80407843490206    -38135.5322566984     68291.1062760507     72822.2322459321     71921.1483367533         11.897069931         15.009448051         13.739188351 
                 4.6       46     240.947335483334    -40676.3295763805    -40896.8225757933      220.49299941274     70619.4263309993     2453.38561052904     1.80407843490206    -38149.5585494538      67698.226281316     72370.7584188606     71789.2942928212         11.897069931         15.009448051         13.739188351 
                 4.7       47      239.99690357936    -40676.3273307984     -40895.950581721     219.623250922579     70233.1696984877     2453.38561052904     1.80407843490206    -38163.3766096812     67115.8008526657     71908.9457424916     71674.7625003057         11.897069931         15.009448051         13.739188351 
                 4.8       48      238.83884677343    -40676.3247234967    -40894.8882265781     218.563503081343     69860.3720952135     2453.38561052904     1.80407843490206    -38176.7127426073     66547.7821214954     71451.8402489147     71581.4939152303         11.897069931         15.009448051         13.739188351 
                 4.9       49     237.469089799311    -40676.3216964134     -40893.631722991     217.310026577508     69510.2610502769     2453.38561052904     1.80407843490206    -38189.2367281395     66001.7973241745     71015.2343826524     71513.7514440038         11.897069931         15.009448051         13.739188351 
                   5       50     235.889347551696    -40676.3182513852    -40892.1826421113     215.864390726102     69189.2433632013     2453.38561052904     1.80407843490206    -38200.7193321062     65481.3362859266     70611.6052886429     71474.7885150346         11.897069931         15.009448051         13.739188351 
                 5.1       51     234.107187477829    -40676.3144350323    -40890.5479555962     214.233520563822     68901.4219332768     2453.38561052904     1.80407843490206    -38211.0137989291     64987.9829997406     70249.4399852848      71466.842814805         11.897069931         15.009448051         13.739188351 
                 5.2       52     232.135318416246    -40676.3103194312    -40888.7393654904     212.429046059194     68649.2429376883     2453.38561052904     1.80407843490206    -38220.0326761893     64522.9964619661     69933.3228429681     71491.4095081305         11.897069931         15.009448051         13.739188351 
                 5.3       53     229.990538681484    -40676.3059637349    -40886.7723032307     210.466339495752     68434.1280180083     2453.38561052904     1.80407843490206    -38227.7251565443     64088.0039150948     69665.2731297816     71549.1070091486         11.897069931         15.009448051         13.739188351 
                 5.4       54     227.692555120251    -40676.3015161771    -40884.6649509572     208.363434780075     68254.3014666092     2453.38561052904     1.80407843490206    -38234.1549232467     63683.6896935971      69440.876747185     71638.3379590456         11.897069931         15.009448051         13.739188351 
                 5.5       55       225.2625747928    -40676.2969293768     -40882.436668054     206.139738677195     68102.5702117932     2453.38561052904     1.80407843490206    -38239.5792978309     63310.8721008154     69243.3285476498     71753.5099869143         11.897069931         15.009448051         13.739188351 
                 5.6       56     222.723246049247    -40676.2921554552    -40880.1081323442     203.815976889011     67977.8329714498     2453.38561052904     1.80407843490206     -38244.037636416     62969.8860079482      69070.573514343     71893.0393920581         11.897069931         15.009448051         13.739188351 
                 5.7       57     220.099284042544    -40676.2872095917    -40877.7019760583     201.414766466649     67879.7308223583     2453.38561052904     1.80407843490206    -38247.5427964948     62661.1528388539     68922.3717682765     72055.6678599446         11.897069931         15.009448051         13.739188351 
                 5.8       58      217.41727367941    -40676.2821120014    -40875.2425474906     198.960435489146     67807.9669347165     2453.38561052904     1.80407843490206    -38250.1054188861     62384.9160593954     68798.6178705455     72240.3668742087         11.897069931         15.009448051         13.739188351 
                 5.9       59     214.705342254073     -40676.276881791    -40872.7556052788     196.478723487747      67762.039689772     2453.38561052904     1.80407843490206    -38251.7434706719     62141.3686899937     68699.1117485448     72445.6386307775         11.897069931         15.009448051         13.739188351 
                   6       60     211.992801523103    -40676.2715392537    -40870.2679931591      193.99645390547     67740.8051727609     2453.38561052904     1.80407843490206    -38252.4979015445     61930.0332420351     68622.5202566245     72669.8620196229         11.897069931         15.009448051         13.739188351 
                 6.1       61     209.309782254724    -40676.2661029545    -40867.8073026245     191.541199670015     67743.1701721114     2453.38561052904     1.80407843490206    -38252.4078453023     61750.2809438431     68568.0764265042     72911.1531459869         11.897069931         15.009448051         13.739188351 
                 6.2       62     206.686859343678    -40676.2605957704    -40865.4015359035     189.140940133114     67767.8824851468     2453.38561052904     1.80407843490206    -38251.5181287748     61601.5124686331     68534.7095486274     73167.4254381799         11.897069931         15.009448051         13.739188351 
                 6.3       63     204.154646253804    -40676.2550393645    -40863.0787293059     186.823689941413     67813.6380911386     2453.38561052904     1.80407843490206    -38249.8754316336      61482.590623084      68521.228180919     73437.0954694127         11.897069931         15.009448051         13.739188351 
                 6.4       64     201.743373590892    -40676.2494539268    -40860.8665673116     184.617113384835     67879.1527999148     2453.38561052904     1.80407843490206     -38247.525722538     61392.7800944782     68526.7879816065     73717.8903236598         11.897069931         15.009448051         13.739188351 
                 6.5       65     199.482459143909     -40676.243864387    -40858.7919953246     182.548130937568     67962.9485830664     2453.38561052904     1.80407843490206    -38244.5219104405     61330.8545076485     68550.3431496345     74007.6480919162         11.897069931         15.009448051         13.739188351 
                 6.6       66     197.400067414028    -40676.2382907659    -40856.8808069451     180.642516179253     68063.4372935553     2453.38561052904     1.80407843490206    -38240.9208394414     61295.3222346209     68590.6737345308     74304.3159115141         11.897069931         15.009448051         13.739188351 
                 6.7       67      195.52267356048    -40676.2327543151    -40855.1572510732     178.924496758048     68179.1021136402     2453.38561052904     1.80407843490206    -38236.7768027025      61285.137571671     68646.4024896235     74605.7662796261         11.897069931         15.009448051         13.739188351 
                 6.8       68     193.874630956521    -40676.2272748954    -40853.6436335527     177.416358657338     68308.3931231546     2453.38561052904     1.80407843490206    -38232.1452764022     61298.8374722723     68716.5294124655     74909.8124847261         11.897069931         15.009448051         13.739188351 
                 6.9       69     192.477758796394    -40676.2218677809    -40852.3599365922     176.138068811283     68449.9026826136     2453.38561052904     1.80407843490206    -38227.0766413142     61334.8801081457     68800.1071119056     75214.7208277895         11.897069931         15.009448051         13.739188351 
                   7       70     191.350950742763    -40676.2165513142    -40851.3234682889     175.106916974682       68601.90956189     2453.38561052904     1.80407843490206    -38221.6325015887     61391.7309241207     68895.7483947119     75518.2493668374         11.897069931         15.009448051         13.739188351 
                 7.1       71      190.50979815137    -40676.2113363804     -40850.548507313     174.337170932594     68763.3790148028     2453.38561052904     1.80407843490206    -38215.8498914458     61468.4331138392     69002.8060839975     75818.8978465718         11.897069931         15.009448051         13.739188351 
                 7.2       72     189.966266295673    -40676.2062337544    -40850.0460139651     173.839780210681     68932.4733797167     2453.38561052904     1.80407843490206    -38209.7945734007     61562.9289791132     69119.9706665769     76114.5204934599         11.897069931         15.009448051         13.739188351 
                 7.3       73      189.72842734748    -40676.2012482651    -40849.8233799886     173.622131723475      69107.864208142     2453.38561052904     1.80407843490206    -38203.5140843187     61673.7685269658      69246.340701293     76403.4833961673         11.897069931         15.009448051         13.739188351 
                 7.4       74     189.800234129986    -40676.1963817887    -40849.8842245225     173.687842733814     69288.4446843408     2453.38561052904     1.80407843490206    -38197.0480280678     61799.6140975297     69381.2071258848      76684.512829608         11.897069931         15.009448051         13.739188351 
                 7.5       75     190.181365484342    -40676.1916318812    -40850.2282512276     174.036619346444     69473.1345770955     2453.38561052904     1.80407843490206    -38190.4350529987     61939.2173402282     69524.1068502842     76956.0795407743         11.897069931         15.009448051         13.739188351 
                 7.6       76     190.867143289497    -40676.1869906388     -40850.851171211     174.664180572161     69661.1332144034     2453.38561052904     1.80407843490206     -38183.703799342     62091.6389893684     69674.5970814739      77217.163572368         11.897069931         15.009448051         13.739188351 
                 7.7       77     191.848528058622    -40676.1824452264    -40851.7446995245     175.562254298058     69851.5360060097     2453.38561052904     1.80407843490206    -38176.8866206037     62255.9774849044     69832.0778110715     77466.5527220533         11.897069931         15.009448051         13.739188351 
                 7.8       78     193.112189381413     -40676.177981683    -40852.8966234329     176.718641749885     70043.6922755147     2453.38561052904     1.80407843490206    -38170.0067840978     62431.6509218055     69996.2352685386     77703.1906361999         11.897069931         15.009448051         13.739188351 
                 7.9       79     194.640649185665    -40676.1735773916    -40854.2909259836     178.117348591964     70236.7679141164     2453.38561052904     1.80407843490206     -38163.094111714     62617.3056422431     70166.5679600888     77926.4301400171         11.897069931         15.009448051         13.739188351 
                   8       80     196.412517908709    -40676.1692069926    -40855.9080080423     179.738801049722     70430.4267963279     2453.38561052904     1.80407843490206    -38156.1606047006     62812.4501594164     70342.8629419641     78135.9672876034         11.897069931         15.009448051         13.739188351 
                 8.1       81     198.402811977261    -40676.1648408252    -40857.7249772634     181.560136438255     70624.2493352135     2453.38561052904     1.80407843490206    -38149.2212462645      63016.480979378     70524.9804957632     78331.2865304995         11.897069931         15.009448051         13.739188351 
                 8.2       82     200.582974217859     -40676.160605637    -40859.7158274771     183.555221840098     70821.0922773002     2453.38561052904     1.80407843490206     -38142.173948441     63228.8638066218     70719.2784126233     78515.1346126554         11.897069931         15.009448051         13.739188351 
                 8.3       83     202.920461840259    -40676.1563442631    -40861.8506213284     185.694277065254     71027.3580265246     2453.38561052904     1.80407843490206    -38134.7894753313     63449.3126857974     70939.5294551296     78693.2319386468         11.897069931         15.009448051         13.739188351 
                 8.4       84     205.379590148776    -40676.1519650536    -40864.0966117924     187.944646738768     71243.3448302483     2453.38561052904     1.80407843490206    -38127.0570639612     63678.1796412308     71186.0298971754     78865.8249523386         11.897069931         15.009448051         13.739188351 
                 8.5       85     207.923359666498     -40676.147374948    -40866.4198472659     190.272472317964     71468.3713824789     2453.38561052904     1.80407843490206    -38119.0009984754     63916.3402991096     71456.4068143215     79032.3670340055         11.897069931         15.009448051         13.739188351 
                 8.6       86     210.514924423392    -40676.1424835873    -40868.7865193229     192.644035735645     71700.1440821201     2453.38561052904     1.80407843490206    -38110.7032538204     64163.5700895941     71745.6999935088     79191.1621632574         11.897069931         15.009448051         13.739188351 
                 8.7       87     213.119034308864    -40676.1372249276    -40871.1643042371     195.027079309446     71934.6036467437     2453.38561052904     1.80407843490206    -38102.3090055349     64419.2021928807     72045.6170872418     79338.9916601087         11.897069931         15.009448051         13.739188351 
                 8.8       88     215.703044429066    -40676.1315871604    -40873.5233165739     197.391729413475     72167.0076104553     2453.38561052904     1.80407843490206    -38093.9879277739     64683.5416009486     72345.7615531545     79471.7196772629         11.897069931         15.009448051         13.739188351 
                 8.9       89     218.237090862466    -40676.1256227519    -40875.8362800657      199.71065731376     72391.1174492099     2453.38561052904     1.80407843490206    -38085.9632880967     64955.3767894381     72633.7768319621     79584.1987262297         11.897069931         15.009448051         13.739188351 
                   9       90     220.693303154217    -40676.1194227084    -40878.0777812234     201.958358515005     72601.9128616711     2453.38561052904     1.80407843490206    -38078.4148044566     65234.5522427242     72899.0908517754     79672.0954905136         11.897069931         15.009448051         13.739188351 
                 9.1       91     223.044397669669    -40676.1130773693    -40880.2229428955     204.109865526173     72795.3827286437     2453.38561052904     1.80407843490206    -38071.4860854896     65520.6922975011     73133.7768435615     79731.6790448684         11.897069931         15.009448051         13.739188351 
                 9.2       92     225.262414516714    -40676.1066112834    -40882.2462032905     206.139592007157     72970.0312242902     2453.38561052904     1.80407843490206    -38065.2306765614     65813.4985575508     73334.8204030471     79761.7747122728         11.897069931         15.009448051         13.739188351 
                 9.3       93     227.318421904429    -40676.0999664675    -40884.1210286923     208.021062224799     73126.4295913732     2453.38561052904     1.80407843490206    -38059.6280805585     66111.9848322835     73504.2304508671     79763.0734909691         11.897069931         15.009448051         13.739188351 
                 9.4       94     229.183568151062    -40676.0930216019    -40885.8208953565     209.727873754541       73267.97682537     2453.38561052904     1.80407843490206    -38054.5565597202     66415.6105597096     73649.0132635746     79739.3066528259         11.897069931         15.009448051         13.739188351 
                 9.5       95      230.83117979934    -40676.0856368715    -40887.3212543554     211.235617483963     73399.3019421866     2453.38561052904     1.80407843490206    -38049.8503475209     66723.6607268028     73778.9903269448     79695.2547728122         11.897069931         15.009448051         13.739188351 
                 9.6       96     232.239124777443    -40676.0777135335    -40888.6017536955      212.52404016192     73525.2611014474     2453.38561052904     1.80407843490206    -38045.3355912797     67035.3371768218     73904.4017119397     79636.0444155806         11.897069931         15.009448051         13.739188351 
                 9.7       97     233.391597248777    -40676.0692201733    -40889.6478979034     213.578677730065      73650.637424183     2453.38561052904     1.80407843490206    -38040.8411189728     67349.8755130173      74034.779157008     79567.2576025237         11.897069931         15.009448051         13.739188351 
                 9.8       98     234.279896604231    -40676.0601807422    -40890.4517489277     214.391568185432     73778.8200658558     2453.38561052904     1.80407843490206    -38036.2456901873     67666.1681619672     74176.9446372826     79493.3473983176         11.897069931         15.009448051         13.739188351 
                 9.9       99     234.902248369942    -40676.0506610704     -40891.011748762     214.961087691577     73911.6960625579     2453.38561052904     1.80407843490206    -38031.4818523897     67982.9515572803     74334.6727549394     79417.4638754539         11.897069931         15.009448051         13.739188351 
                  10      100     235.263000887886    -40676.0407355274    -40891.3319509814      215.29121545401     74049.7539445994     2453.38561052904     1.80407843490206    -38026.5322002798      68298.844001841     74509.4319560575     79340.9858758998         11.897069931         15.009448051         13.739188351 
                10.1      101     235.371623836378    -40676.0304674212    -40891.4210846788     215.390617257603     74192.0061403146     2453.38561052904     1.80407843490206    -38021.4321325913     68612.3724531601     74699.7738387569     79263.8721290269         11.897069931         15.009448051         13.739188351 
                10.2      102     235.241463766229    -40676.0200361496    -40891.2915427966     215.271506646923     74332.9313412958     2453.38561052904     1.80407843490206    -38016.3793817583     68921.6383006425     74895.2224716148     79181.9332516302         11.897069931         15.009448051         13.739188351 
                10.3      103      234.88874992968    -40676.0093085941    -40890.9580437457     214.948735151654     74465.8267275115     2453.38561052904     1.80407843490206    -38011.6136423179     69224.5610307688     75083.1513045967     79089.7678471691         11.897069931         15.009448051         13.739188351 
                10.4      104     234.332802023398    -40675.9983151023    -40890.4382974963     214.439982394013     74589.5791928031     2453.38561052904     1.80407843490206    -38007.1747716816     69519.4964104928     75261.8865350174      78987.354632899         11.897069931         15.009448051         13.739188351 
                10.5      105     233.596230015218    -40675.9870916941     -40889.753030646     213.765938951943     74703.0609372818     2453.38561052904     1.80407843490206    -38003.1031586762     69804.3814189575     75430.0892201839     78874.7121727041         11.897069931         15.009448051         13.739188351 
                10.6      106     232.704438296234    -40675.9756762068    -40888.9255288112     212.949852604377     74804.8925953262     2453.38561052904     1.80407843490206    -37999.4481949964     70077.2149362672     75585.9430048281     78751.5198448833         11.897069931         15.009448051         13.739188351 
                10.7      107     231.685068921162    -40675.9641097489    -40887.9811285846     212.017018835668     74893.6910640784     2453.38561052904     1.80407843490206    -37996.2594093265     70335.9895261531     75727.6885074632      78617.395158619         11.897069931         15.009448051         13.739188351 
                10.8      108     230.567406316746    -40675.9524325323    -40886.9466686114     210.994236079077      74968.134013464     2453.38561052904     1.80407843490206    -37993.5841549975     70578.7624034391     75853.6360758742     78472.0035610788         11.897069931         15.009448051         13.739188351 
                10.9      109     229.381746213516    -40675.9406843454    -40885.8499125662     209.909228220738     75026.6965658298     2453.38561052904     1.80407843490206    -37991.4770320919     70803.1893758454     75962.0787041409     78314.8216175031         11.897069931         15.009448051         13.739188351 
                  11      110     228.158758717966    -40675.9289021997    -40884.7189639412     208.790061741485     75068.0301382872     2453.38561052904     1.80407843490206    -37989.9863300689     71007.2522012855     76051.5190024354     78145.3192111408         11.897069931         15.009448051         13.739188351 
                11.1      111     226.928865633351     -40675.917121691    -40883.5816975888     207.664575897703       75091.17640939     2453.38561052904     1.80407843490206    -37989.1463733735     71189.3230531237     76120.7899383314     77963.4162367148         11.897069931         15.009448051         13.739188351 
                11.2      112     225.721643889505    -40675.9053734985    -40882.4652102933     206.559836794766     75095.1951624703     2453.38561052904     1.80407843490206    -37988.9908337432     71347.5778454643     76169.1133927357     77768.8942492108         11.897069931         15.009448051         13.739188351 
                11.3      113     224.565221989001    -40675.8936987738    -40881.3952838435     205.501585069686     75077.4373930967     2453.38561052904     1.80407843490206    -37989.6145340065     71476.4922413662     76194.4245070773     77561.3954308466         11.897069931         15.009448051         13.739188351 
                11.4      114     223.485698006079    -40675.8821080537    -40880.3958113506      204.51370329687     75035.6264208312     2453.38561052904     1.80407843490206    -37991.0989445826     71570.5906742981     76195.1602267704     77341.1283614251         11.897069931         15.009448051         13.739188351 
                11.5      115      222.50671408652    -40675.8706211941    -40879.4884478034     203.617826609263     74969.0265892199     2453.38561052904     1.80407843490206    -37993.4704071982     71627.9064783528     76170.7701413294     77108.4031479774         11.897069931         15.009448051         13.739188351 
                11.6      116     221.649109407718    -40675.8592502137    -40878.6922753328     202.833025119095     74876.7653997075     2453.38561052904     1.80407843490206    -37996.7601519685     71647.0255266086     76120.5944378053     76862.6762347086         11.897069931         15.009448051         13.739188351 
                11.7      117      220.93059809057     -40675.848000847    -40878.0235100193     202.175509172251     74758.6710151922     2453.38561052904     1.80407843490206     -38000.974332979      71627.359449849     76044.4483043416     76604.2052913859         11.897069931         15.009448051         13.739188351 
                11.8      118     220.365539527913    -40675.8368760834    -40877.4952952572     201.658419173832     74614.6314892494     2453.38561052904     1.80407843490206    -38006.1169586746     71567.8503860245     75942.4550426538     76333.5890390699         11.897069931         15.009448051         13.739188351 
                11.9      119     219.964783242933    -40675.8258714701    -40877.1175550868     201.291683616738     74444.5676240114     2453.38561052904     1.80407843490206    -38012.1908583112     71468.2005211808     75814.8708603854     76050.6314904682         11.897069931         15.009448051         13.739188351 
                  12      120     219.735584370904    -40675.8149783108     -40876.896920049     201.081941738272     74248.8042198975     2453.38561052904     1.80407843490206     -38019.184401797     71328.2073631222      75662.094753592     75756.1105429783         11.897069931         15.009448051         13.739188351 
                12.1      121     219.681623754976     -40675.804178584     -40876.836740494      201.03256190997     74028.0482953747     2453.38561052904     1.80407843490206    -38027.0722739101     71148.4793353775     75484.8465639446     75450.8189868019         11.897069931         15.009448051         13.739188351 
                12.2      122     219.803108542082    -40675.7934611596    -40876.9371948534     201.143733693788     73782.9288710382     2453.38561052904     1.80407843490206    -38035.8319570925     70929.4476372815      75283.990440712     75135.3485351212         11.897069931         15.009448051         13.739188351 
                12.3      123     220.096923530082    -40675.7827996896    -40877.1954060308     201.412606341193     73514.2242982208     2453.38561052904     1.80407843490206    -38045.4355754981     70671.7424842244     75060.4572710636     74810.4731393743         11.897069931         15.009448051         13.739188351 
                12.4      124     220.556865968684    -40675.7721672184    -40877.6056708799     201.833503661518     73223.2803342994     2453.38561052904     1.80407843490206    -38055.8349508206     70376.6777546509     74815.6202096044      74477.543038643         11.897069931         15.009448051         13.739188351 
                12.5      125     221.173932818394    -40675.7615432516    -40878.1597301468      202.39818689513     72911.3324066999     2453.38561052904     1.80407843490206    -38066.9858588334     70045.3689032811     74550.9937563528      74137.634560466         11.897069931         15.009448051         13.739188351 
                12.6      126     221.936646446626     -40675.750892536    -40878.8470452967     203.096152760759     72579.5679101675     2453.38561052904     1.80407843490206    -38078.8457791653     69679.2594392802     74267.7140490739     73791.7302421484         11.897069931         15.009448051         13.739188351 
                12.7      127     222.831430295666    -40675.7401903672    -40879.6551675998     203.914977232527     72229.1868259268     2453.38561052904     1.80407843490206    -38091.3717516489      69279.131142721     73967.2563625993     73441.1729724602         11.897069931         15.009448051         13.739188351 
                12.8      128     223.842306242928    -40675.7295960644    -40880.5696346561     204.840038591678     71867.4380092992     2453.38561052904     1.80407843490206    -38104.3045707433     68846.2259850546     73662.4205979823     73093.6674448607         11.897069931         15.009448051         13.739188351 
                12.9      129     224.950586735063    -40675.7189138092    -40881.5731495051     205.854235695835     71501.0260971118     2453.38561052904     1.80407843490206    -38117.4041479697     68382.6504593332     73364.1777940621       72756.25003794         11.897069931         15.009448051         13.739188351 
                  13      130     226.135994852667    -40675.7080689089    -40882.6470818688     206.939012959938     71131.7734582729     2453.38561052904     1.80407843490206    -38130.6052040703     67890.3457617701     73074.4698219503     72430.5047910983         11.897069931         15.009448051         13.739188351 
                13.1      131     227.378271130823    -40675.6969645271    -40883.7727952987     208.075830771683     70760.7137132436     2453.38561052904     1.80407843490206    -38143.8706591525     67371.8283083798     72793.1126648713     72117.2001664798         11.897069931         15.009448051         13.739188351 
                13.2      132     228.658671723799    -40675.6855086483    -40884.9330451234     209.247536475043     70386.8517495909     2453.38561052904     1.80407843490206    -38157.2360264358      66828.968068061     72516.9331294198     71814.6540512918         11.897069931         15.009448051         13.739188351 
                13.3      133     229.961412969386    -40675.6736440016    -40886.1133303053     210.439686303643     70007.5418124026     2453.38561052904     1.80407843490206    -38170.7959140576     66263.9982569872     72239.5497223489     71519.0774578717         11.897069931         15.009448051         13.739188351 
                13.4      134     231.274502767716    -40675.6613855553     -40887.302691738      211.64130618274     69618.9810359716     2453.38561052904     1.80407843490206    -38184.6864039497     65679.5713134548     71952.1530135505     71225.2187809095         11.897069931         15.009448051         13.739188351 
                13.5      135     232.589469079314    -40675.6488276091    -40888.4934708846     212.844643275425     69216.6860448438     2453.38561052904     1.80407843490206    -38199.0680060906     65077.7539532199     71645.1514481588     70927.1527331527         11.897069931         15.009448051         13.739188351 
                13.6      136     233.899802773472    -40675.6361241815    -40889.6798652011     214.043741019656      68796.712596222     2453.38561052904     1.80407843490206    -38214.0819999499     64460.6085243033     71310.0586968502     70619.4705675126         11.897069931         15.009448051         13.739188351 
                13.7      137     235.198552740843    -40675.6234180645    -40890.8556564594     215.232238394896     68356.7833769302     2453.38561052904     1.80407843490206    -38229.8100108418     63830.3791732022     70941.3128121328     70298.6581454554         11.897069931         15.009448051         13.739188351 
                13.8      138     236.476139358489    -40675.6107725245    -40892.0121415294      216.40136900499     67897.2687208693     2453.38561052904     1.80407843490206    -38246.2388514438     63189.2647401623     70538.6047316053     69963.9366908403         11.897069931         15.009448051         13.739188351 
                13.9      139     237.719446706999    -40675.5981420985    -40893.1372724566     217.539130358171     67421.8815475987     2453.38561052904     1.80407843490206    -38263.2356276132     62539.2101225908     70108.2352183479     69618.1993018575         11.897069931         15.009448051         13.739188351 
                  14      140     238.912604682489    -40675.5854081643    -40894.2164077488     218.630999584536      66936.913176237     2453.38561052904     1.80407843490206     -38280.575116621     61882.4267685746     69660.8615649852     69267.4511951513         11.897069931         15.009448051         13.739188351 
                14.1      141     240.038982962411    -40675.5724471576    -40895.2342052891     219.661758131483     66450.4734599072     2453.38561052904     1.80407843490206     -38297.967023445     61220.9508816708     69210.6388090471     68919.8306890036         11.897069931         15.009448051         13.739188351 
                14.2      142     241.083309148466     -40675.559196189    -40896.1766262837     220.617430094681     65971.3984572012     2453.38561052904     1.80407843490206    -38315.0951300242     60556.9426197956      68773.065051369     68584.1877004391         11.897069931         15.009448051         13.739188351 
                14.3      143     242.032871226535    -40675.5456857553    -40897.0320683549     221.486382599601     65507.8432105898     2453.38561052904     1.80407843490206    -38331.6676785175     59892.3632617121     68362.3893261818     68268.7770438754         11.897069931         15.009448051         13.739188351 
                14.4      144     242.877332861752    -40675.5320189812    -40897.7911757577     222.259156776432     65066.6604004515     2453.38561052904     1.80407843490206     -38347.439582374      59229.422376489     67990.5104581295     67980.0483667361         11.897069931         15.009448051         13.739188351 
                14.5      145     243.607359760327    -40675.5183368245    -40898.4455475563     222.927210731857     64652.6247986695     2453.38561052904     1.80407843490206    -38362.2401406756     58569.9615979712     67665.9406234147     67721.9721746227         11.897069931         15.009448051         13.739188351 
                14.6      146     244.212617358679    -40675.5047810773    -40898.9858682943     223.481087216983     64269.3555691458     2453.38561052904     1.80407843490206    -38375.9400011226     57916.1570449206     67394.5609723247     67497.3486901921         11.897069931         15.009448051         13.739188351 
                14.7      147     244.679781477373    -40675.4914541804    -40899.4000473398     223.908593159484     63919.1896992896     2453.38561052904     1.80407843490206     -38388.455648483     57270.3122170467     67180.0224520245     67307.2344287976         11.897069931         15.009448051         13.739188351 
                14.8      148     244.990783384587     -40675.478527624      -40899.67172133     224.193193705936     63601.2272310469     2453.38561052904     1.80407843490206    -38399.8194548478     56635.1408355314     67019.5735777185     67148.9672798908         11.897069931         15.009448051         13.739188351 
                14.9      149     245.121801155343    -40675.4658225336    -40899.7789117395      224.31308920589     63311.9257908996     2453.38561052904     1.80407843490206    -38410.1579878654     56014.2649496712     66904.5982397478     67016.9141832798         11.897069931         15.009448051         13.739188351 
                  15      150       245.0443291138    -40675.4532312657    -40899.6954251335     224.242193867802     63053.6587029641     2453.38561052904     1.80407843490206    -38419.3862220887     55410.9475966756     66836.8673644756     66913.1611477412         11.897069931         15.009448051         13.739188351 
                15.1      151     244.727544555998    -40675.4405522891    -40899.3928538567     223.952301567573     62827.2408039594     2453.38561052904     1.80407843490206    -38427.4748010365     54828.3859582887     66814.8815214601     66838.4549321293         11.897069931         15.009448051         13.739188351 
                15.2      152     244.141320357827    -40675.4275006074    -40898.8433433197     223.415842712265     62633.2449450121     2453.38561052904     1.80407843490206    -38434.4029430347     54270.7266883618     66834.9462575624     66794.0618891121         11.897069931         15.009448051         13.739188351 
                15.3      153     243.260556756438    -40675.4137015685    -40898.0235498594     222.609848290893     62470.7285018095     2453.38561052904     1.80407843490206    -38440.2040006354     53740.9573441307     66889.9381086839      66781.290052614         11.897069931         15.009448051         13.739188351 
                15.4      154     242.070551261326    -40675.3987604127    -40896.9196243394     221.520863926702     62336.8392771607     2453.38561052904     1.80407843490206    -38444.9796310154     53242.1102002982     66968.8687996801     66799.5388315038         11.897069931         15.009448051         13.739188351 
                15.5      155      240.57260171078    -40675.3823459107    -40895.5324231935     220.150077282781     62227.8928989795     2453.38561052904     1.80407843490206    -38448.8613301938     52777.4008758052     67058.2464462962     66848.0313748371         11.897069931         15.009448051         13.739188351 
                15.6      156     238.788371567142    -40675.3644269534    -40893.8817397351     218.517312781675     62142.2721543448     2453.38561052904     1.80407843490206    -38451.9069311217     52351.5929742111     67145.9151851607     66929.3083036625         11.897069931         15.009448051         13.739188351 
                15.7      157     236.759134548008    -40675.3454564551     -40892.005796816     216.660340360831     62130.4877665294     2453.38561052904     1.80407843490206    -38452.3096073465     52037.0391668308     67251.6957469166     67102.7283858408         11.897069931         15.009448051         13.739188351 
                15.8      158     234.543601959074    -40675.3252085207    -40889.9580957667     214.632887246021     62210.6259490019     2453.38561052904     1.80407843490206    -38449.4220062185     51878.6794471396     67370.0436781376     67383.1547217285         11.897069931         15.009448051         13.739188351 
                15.9      159     232.060438986322    -40675.4078017975      -40887.76832504     212.360523242517     62480.1980378322     2453.38561052904     1.80407843490206    -38439.8592797991     51895.7050711439     67783.0078048034     67761.8812375494         11.897069931         15.009448051         13.739188351 
                  16      160     227.870797933543    -40675.5952943202    -40884.1218406468      208.52654632662     63811.8986408478     2453.38561052904     1.80407843490206    -38392.3983747765      52283.116563881     70905.6149723879     68246.9643862745         11.897069931         15.009448051         13.739188351 
                16.1      161     220.335623109975    -40675.5111563144    -40877.1421987143     201.631042399943     65956.1396935332     2453.38561052904     1.80407843490206     -38315.593050432     52932.4670484119     76151.9979062889     68783.9541258987         11.897069931         15.009448051         13.739188351 
                16.2      162     211.489178633834    -40675.1332964468    -40868.6688806722     193.535584225359     68021.2013242822     2453.38561052904     1.80407843490206    -38241.3270528594     53579.4268534389     81180.8035319203     69303.3735874876         11.897069931         15.009448051         13.739188351 
                16.3      163     206.905026857548    -40674.8938601438    -40864.2344472638     189.340587119917     69029.9288145051     2453.38561052904     1.80407843490206    -38204.9952333585      53962.268296515     83370.5932430886     69756.9249039117         11.897069931         15.009448051         13.739188351 
                16.4      164      209.73683447263    -40675.1183399132    -40867.0503387769     191.931998863719     68539.5662426519     2453.38561052904     1.80407843490206    -38222.7649411709     53970.7634966843     81524.9323085558     70123.0029227157         11.897069931         15.009448051         13.739188351 
                16.5      165     216.657143727496    -40675.4594585833    -40873.7242925514     198.264833968155     66959.6697553908     2453.38561052904     1.80407843490206    -38279.6349340751     53697.7424611254     76788.9171819698     70392.3496230771         11.897069931         15.009448051         13.739188351 
                16.6      166     222.185229447651     -40675.498615809     -40878.822249033     203.323633224028      65218.520242677     2453.38561052904     1.80407843490206    -38341.9726169452      53340.024834791     71756.4193940214     70559.1164992187         11.897069931         15.009448051         13.739188351 
                16.7      167     224.502052573479     -40675.274510398    -40880.7182885869     205.443778188893     64150.4126719328     2453.38561052904     1.80407843490206    -38379.9655207003     53055.7163675193     68775.7024999667     70619.8191483125         11.897069931         15.009448051         13.739188351 
                16.8      168     225.334551144993    -40675.1717253298     -40881.377330192     206.205604862227     63938.3751738025     2453.38561052904     1.80407843490206    -38387.4494611938     52857.1145222443     68387.3331872118     70570.6778119515         11.897069931         15.009448051         13.739188351 
                16.9      169     226.101859761444    -40675.1602630879    -40882.0680387294     206.907775641485     63706.3408456624     2453.38561052904     1.80407843490206    -38395.7402133433     52555.8655965675     68154.9460146861     70408.2109257335         11.897069931         15.009448051         13.739188351 
                  17      170     226.879901571769    -40675.1480178044    -40882.7677862641     207.619768459679     63377.3068968255     2453.38561052904     1.80407843490206    -38407.5008398033     52145.2311135169     67834.4020691853     70152.2875077743         11.897069931         15.009448051         13.739188351 
                17.1      171     227.615886534768    -40675.1347478884      -40883.42802258     208.293274691606     62982.9947233418     2453.38561052904     1.80407843490206      -38421.59610386     51650.2808227922     67460.7507284612     69837.9526187721         11.897069931         15.009448051         13.739188351 
                17.2      172     228.268505271788    -40675.1201076012    -40884.0105993673     208.890491766076     62561.1006174095     2453.38561052904     1.80407843490206    -38436.6768821947     51104.9351429042     67074.0673763437     69504.2993329806         11.897069931         15.009448051         13.739188351 
                17.3      173     228.812342008656      -40675.10405452    -40884.4922160074     209.388161487395      62145.710048617     2453.38561052904     1.80407843490206     -38451.523550444     50547.3331237935     66705.3368976818     69184.4601243757         11.897069931         15.009448051         13.739188351 
                17.4      174     229.239716970109    -40675.0867287227    -40884.8659847492     209.779256026522     61767.7038032827     2453.38561052904     1.80407843490206     -38465.031330674     50015.9312465841     66380.6569067791     68906.5232564848         11.897069931         15.009448051         13.739188351 
                17.5      175     229.559556227465    -40675.0683687572    -40885.1403124661     210.071943708845     61451.1221938061     2453.38561052904     1.80407843490206    -38476.3402963474     49545.4096975964     66117.5132770978     68690.4436067243         11.897069931         15.009448051         13.739188351 
                17.6      176     229.794468341376    -40675.0492756154      -40885.33618944     210.286913824578     61211.0023860819     2453.38561052904     1.80407843490206    -38484.9127169671     49163.4666880398     65923.0499763523     68546.4904938535         11.897069931         15.009448051         13.739188351 
                17.7      177     229.976664700182    -40675.0297808464    -40885.4834241414     210.453643294961     61054.1031340094     2453.38561052904     1.80407843490206    -38490.5070951064     48890.4782061169     65795.2459614103      68476.585234501         11.897069931         15.009448051         13.739188351 
                17.8      178      230.14303907162    -40675.0102436451    -40885.6161375724     210.605893927284     60979.6312467883     2453.38561052904     1.80407843490206    -38493.1521704165     48738.8377910899     65724.5801287008     68475.4758205743         11.897069931         15.009448051         13.739188351 
                17.9      179      230.32968849097    -40674.9910291112    -40885.7677275433     210.776698432047     60980.6862200024     2453.38561052904     1.80407843490206    -38493.0952088222      48713.235448808     65696.6990274018     68532.1241837973         11.897069931         15.009448051         13.739188351 
                  18      180     230.565438558255    -40674.9725849021    -40885.9650202683     210.992435366191     61023.8210053772     2453.38561052904     1.80407843490206    -38491.5333971347       48795.72602557     65675.3966587735     68600.3403317882         11.897069931         15.009448051         13.739188351 
                18.1      181     230.867502712753    -40674.9547482073    -40886.2236051049     211.268856897505     61091.9736292351     2453.38561052904     1.80407843490206    -38489.0770518834     48975.9431847434     65642.4481910776     68657.5295118844         11.897069931         15.009448051         13.739188351 
                18.2      182     231.241078867615     -40674.937521498    -40886.5482411795     211.610719681459     61179.7022675001     2453.38561052904     1.80407843490206    -38485.9208846174     49240.3526921589     65597.0753479105     68701.6787624307         11.897069931         15.009448051         13.739188351 
                18.3      183     231.680034258925    -40674.9207415726    -40886.9331531451     212.012411572528     61279.0191276507     2453.38561052904     1.80407843490206    -38482.3505362512     49545.0594652948     65548.8369321033      68743.160985554         11.897069931         15.009448051         13.739188351 
                18.4      184     232.170233911207      -40674.90398068    -40887.3649782119     212.460997531887     61397.0232545465     2453.38561052904     1.80407843490206    -38478.1115744093      49885.919420255     65507.7848710816     68797.3654723031         11.897069931         15.009448051         13.739188351 
                18.5      185     232.694790424895    -40674.8870413653    -40887.8280651188     212.941023753519     61539.7589879506     2453.38561052904     1.80407843490206    -38472.9875344792     50262.2417631862     65484.2670370132     68872.7681636525         11.897069931         15.009448051         13.739188351 
                18.6      186     233.237597808341     -40674.869827044    -40888.3075785486     213.437751504583     61713.0998420225     2453.38561052904     1.80407843490206    -38466.7681648784     50673.5849734614     65488.6222344439     68977.0923181624         11.897069931         15.009448051         13.739188351 
                18.7      187     233.784994326926    -40674.8523197953    -40888.7909986084      213.93867881307     61921.1233240547     2453.38561052904     1.80407843490206    -38459.3075540161     51119.1122838738     65528.0932208969     69116.1644673933         11.897069931         15.009448051         13.739188351 
                18.8      188     234.325958307378    -40674.8345771137    -40889.2682967637     214.433719650044     62165.2154791152     2453.38561052904     1.80407843490206    -38450.5561665379     51597.3933801584      65605.386963414     69292.8660937732         11.897069931         15.009448051         13.739188351 
                18.9      189     234.851413258838    -40674.8166483655    -40889.7312164054     214.914568039885        62445.0902295     2453.38561052904     1.80407843490206    -38440.5242877029     52107.0337737311       65720.61852109     69507.6183936789         11.897069931         15.009448051         13.739188351 
                  19      190     235.353398679481    -40674.7985712966    -40890.1725105548     215.373939258234     62758.8458704165     2453.38561052904     1.80407843490206    -38429.2799984684     52646.3812046013      65871.437097804     69758.7193088441         11.897069931         15.009448051         13.739188351 
                19.1      191     235.824449953177    -40674.7804035964    -40890.5854059664     215.805002370038     63102.2033010328     2453.38561052904     1.80407843490206    -38416.9764632336     53213.1041760992     66052.0477415201     70041.4579854792         11.897069931         15.009448051         13.739188351 
                19.2      192     236.256961072445    -40674.7621123617    -40890.9629094135     216.200797051792     63465.5229219374     2453.38561052904     1.80407843490206    -38403.9585550477     53804.4804075342     66247.3459541982     70344.7424040798         11.897069931         15.009448051         13.739188351 
                19.3      193     236.643796234921    -40674.7435924437    -40891.2983857124     216.554793268772     63845.1627141784     2453.38561052904     1.80407843490206    -38390.3564806102     54417.8217900281     66453.1331287078     70664.5332237994         11.897069931         15.009448051         13.739188351 
                19.4      194      236.97944969492    -40674.7248408216    -40891.5867934869     216.861952665285     64238.5144186779     2453.38561052904     1.80407843490206    -38376.2635607038     55050.0266684347     66667.6549770102     70997.8616105887         11.897069931         15.009448051         13.739188351 
                19.5      195     237.260336378694     -40674.705857809    -40891.8248523182     217.118994509206     64642.5400132317     2453.38561052904     1.80407843490206    -38361.7884964188     55697.5784523075     66888.9610927376       71341.08049465         11.897069931         15.009448051         13.739188351 
                19.6      196     237.484840113867    -40674.6866485146    -40892.0110883417     217.324439827155     65054.1066745843     2453.38561052904     1.80407843490206    -38347.0433856326     56356.9378791033     67115.0666433923     71690.3155012574         11.897069931         15.009448051         13.739188351 
                19.7      197     237.653280164742    -40674.6672238752    -40892.1458046559     217.478580780672     65470.2188787177     2453.38561052904     1.80407843490206    -38332.1354194689     57024.7743723729     67344.2357752249     72041.6464885553         11.897069931         15.009448051         13.739188351 
                19.8      198     237.767825682755    -40674.6475959558    -40892.2309983349     217.583402379074     65887.5509999394     2453.38561052904     1.80407843490206    -38317.1836012543     57697.3194554387     67574.7558528865     72390.5776914932         11.897069931         15.009448051         13.739188351 
                19.9      199      237.83234834503     -40674.627780956    -40892.2702285838     217.642447627724     66302.3219012804     2453.38561052904     1.80407843490206    -38302.3232366952     58369.7798081153     67804.6878922646     72732.4980034614         11.897069931         15.009448051         13.739188351 
                  20      200     237.852227360144    -40674.6077959723    -40892.2684350594     217.660639087111     66710.8859428193     2453.38561052904     1.80407843490206    -38287.6847842948     59038.0609829501     68032.2221540009      73062.374691507         11.897069931         15.009448051         13.739188351 
                20.1      201     237.834109568634    -40674.5876613097    -40892.2317206484      217.64405933874     67109.5695345983     2453.38561052904     1.80407843490206    -38273.3997058205     59697.8511962248     68255.4931702868     73375.3642372832         11.897069931         15.009448051         13.739188351 
                20.2      202     237.785620317306    -40674.5673974418    -40892.1670838455     217.599686403704      67495.085953473     2453.38561052904     1.80407843490206    -38259.5856210704     60345.0927061537      68472.847143514     73667.3180107515         11.897069931         15.009448051         13.739188351 
                20.3      203     237.715069430232    -40674.5470240048    -40892.0821486789     217.535124674184     67863.8365092592     2453.38561052904     1.80407843490206    -38246.3713112205     60975.7831600491     68682.7345381954      73932.991829533         11.897069931         15.009448051         13.739188351 
                20.4      204     237.631154514173    -40674.5265591557    -40891.9848925614     217.458333405667     68212.9431802866     2453.38561052904     1.80407843490206    -38233.8597703675     61586.2661422819     68883.8633414123     74168.7000571658         11.897069931         15.009448051         13.739188351 
                20.5      205     237.542658285428    -40674.5060214321    -40891.8833711702     217.377349738122     68539.0195156574     2453.38561052904     1.80407843490206    -38222.1721846432     62172.4813229803     69074.4817091253     74370.0955148666         11.897069931         15.009448051         13.739188351 
                20.6      206     237.458161176459    -40674.4854251424    -40891.7854508422     217.300025699818     68839.2603351217     2453.38561052904     1.80407843490206    -38211.4089380214     62730.8234896729     69253.2683312984     74533.6891843939         11.897069931         15.009448051         13.739188351 
                20.7      207     237.385776235524    -40674.4647829937    -40891.6985686054     217.233785611679     69111.5252951535     2453.38561052904     1.80407843490206    -38201.6466249417     63258.2107991232     69419.8231882929     74656.5418980446         11.897069931         15.009448051         13.739188351 
                20.8      208      237.33291778087    -40674.4441058506    -40891.6295202313     217.185414380732     69354.0716959106     2453.38561052904     1.80407843490206    -38192.9476102652     63752.1561018689     69573.4100882819     74736.6488975811         11.897069931         15.009448051         13.739188351 
                20.9      209     237.306109035589    -40674.4233995088    -40891.5842809739     217.160881465081     69565.1256607351     2453.38561052904     1.80407843490206    -38185.3753692941     64209.7835231686     69712.9140993141     74772.6793597227         11.897069931         15.009448051         13.739188351 
                  21      210     237.310845089398    -40674.4026648731    -40891.5678803421     217.165215469057     69743.4500632107     2453.38561052904     1.80407843490206    -38178.9741674558     64628.9477136316     69837.6849150973      74763.717560903         11.897069931         15.009448051         13.739188351 
                21.1      211     237.351439313446    -40674.3819521147    -40891.5843157107     217.202363596058     69889.1569595446     2453.38561052904     1.80407843490206    -38173.7400455378     65007.9654445188     69948.7371150353     74710.7683190798         11.897069931         15.009448051         13.739188351 
                21.2      212     237.430005970204    -40674.3613793916    -40891.6356400177     217.274260626036     70009.9728061995     2453.38561052904     1.80407843490206    -38169.3966682158      65346.200467108     70059.7883970289     74623.9295544615         11.897069931         15.009448051         13.739188351 
                21.3      213     237.545796439583    -40674.3408251156    -40891.7210466059     217.380221490245     70109.3367425695     2453.38561052904     1.80407843490206    -38165.8208611066     65642.7325966608     70176.7804420654     74508.4971889823         11.897069931         15.009448051         13.739188351 
                21.4      214     237.696049816768    -40674.3202209898    -40891.8379406505      217.51771966071      70188.512515335     2453.38561052904     1.80407843490206    -38162.9673389148     65896.8971328569      70301.098811388       74367.54160176         11.897069931         15.009448051         13.739188351 
                21.5      215     237.877186379919    -40674.2994727669    -40891.9829520697     217.683479302884     70248.1605759968     2453.38561052904     1.80407843490206    -38160.8123763642      66108.844889576     70432.4885959729     74203.1482424415         11.897069931         15.009448051         13.739188351 
                21.6      216      238.08634874817    -40674.2784642312     -40892.153349834     217.874885602719     70286.5019367873     2453.38561052904     1.80407843490206    -38159.4195096217      66278.232988804     70566.2694583964     74015.0033631617         11.897069931         15.009448051         13.739188351 
                21.7      217     238.323103051653    -40674.2571158029    -40892.3486573251     218.091541522131     70300.0413486376     2453.38561052904     1.80407843490206    -38158.9137195126     66405.2731028299     70693.9169989893     73800.9339440936         11.897069931         15.009448051         13.739188351 
                21.8      218     238.590543142091    -40674.2354400668    -40892.5717183385     218.336278271702     70283.8729311966     2453.38561052904     1.80407843490206    -38159.4705515734     66490.8093608724     70803.7096198708     73557.0998128465         11.897069931         15.009448051         13.739188351 
                21.9      219     238.894925321036    -40674.2135609581    -40892.8283820054      218.61482104732     70231.8560402008     2453.38561052904     1.80407843490206    -38161.3098426823     66534.9553628771     70882.0324657685     73278.5802919569         11.897069931         15.009448051         13.739188351 
                  22      220     239.243486062019    -40674.1916946934    -40893.1254867021     218.933792008765     70138.1984028158     2453.38561052904     1.80407843490206    -38164.6390572305     66538.4859566617     70915.5380439623     72960.5712078236         11.897069931         15.009448051         13.739188351 
                22.1      221     239.640981347102    -40674.1700400724    -40893.4675834689      219.29754339653     69999.7521301848     2453.38561052904     1.80407843490206    -38169.5710258354     66502.9407247025     70895.3147010228      72601.000964829         11.897069931         15.009448051         13.739188351 
                22.2      222     240.086474333207    -40674.1486784962    -40893.8538963935     219.705217897378     69816.8097316053     2453.38561052904     1.80407843490206    -38176.0953638824     66429.7840924608     70818.2942466129     72202.3508557421         11.897069931         15.009448051         13.739188351 
                22.3      223      240.57204402872    -40674.1275184999     -40894.277085443     220.149566943084     69593.7760560832     2453.38561052904     1.80407843490206    -38184.0543739132     66320.5745875993     70689.1990801645      71771.554500486         11.897069931         15.009448051         13.739188351 
                22.4      224     241.084146307987     -40674.106344598    -40894.7245407846     220.618196186629     69338.5304476258     2453.38561052904     1.80407843490206    -38193.1659166263     66177.3376412321     70518.2612078043     71319.9924938411         11.897069931         15.009448051         13.739188351 
                22.5      225     241.606971533315    -40674.0849251921    -40895.1815632834     221.096638091247     69060.5270927659     2453.38561052904     1.80407843490206    -38203.0914885647     66002.0867609319     70319.2964047699     70860.1981125959         11.897069931         15.009448051         13.739188351 
                22.6      226     242.126148984898    -40674.0631119684    -40895.6348538548     221.571741886428     68769.8860157209     2453.38561052904     1.80407843490206    -38213.4688458082     65796.7113403872     70107.5282408691     70405.4184659063         11.897069931         15.009448051         13.739188351 
                22.7      227     242.631243135211    -40674.0408748908    -40896.0748328211     222.033957930299     68475.9555985769     2453.38561052904     1.80407843490206     -38223.963472157     65563.5608342776     69896.5062448271      69967.799716626         11.897069931         15.009448051         13.739188351 
                22.8      228     243.116410365985    -40674.0182774814    -40896.4962161584     222.477938677028     68185.7464537144     2453.38561052904     1.80407843490206    -38234.3245906326     65304.9421094134     69696.0621474623     69556.2351042675         11.897069931         15.009448051         13.739188351 
                22.9      229     243.579556146185    -40673.9954257412    -40896.8971931442     222.901767403072     67904.3450821866     2453.38561052904     1.80407843490206    -38244.3703116557     65023.5057308507     69512.4317028494     69177.0978128596         11.897069931         15.009448051         13.739188351 
                  23      230     244.020816843327    -40673.9724080198    -40897.2779769193     223.305568899531     67634.1508013315     2453.38561052904     1.80407843490206    -38254.0148757312     64720.7988665108     69347.6108735869     68834.0426638966         11.897069931         15.009448051         13.739188351 
                23.1      231     244.441157421614     -40673.949281479    -40897.6395076925     223.690226213526     67376.3328719473     2453.38561052904     1.80407843490206    -38263.2165037379     64399.3132863202     69201.0560154254     68528.6293140963         11.897069931         15.009448051         13.739188351 
                23.2      232     244.841345016127    -40673.9261413825    -40897.9825827395     224.056441357034     67129.1848605543     2453.38561052904     1.80407843490206    -38272.0363473216     64060.3082057847     69067.9107760465     68259.3355998317         11.897069931         15.009448051         13.739188351 
                23.3      233      245.22113976622    -40673.9029135957    -40898.3069084271     224.403994831494     66886.5512119791     2453.38561052904     1.80407843490206     -38280.694578805     63705.5601629345     68935.1829409665     68018.9105320364         11.897069931         15.009448051         13.739188351 
                23.4      234     245.579884845419    -40673.8795290332    -40898.6118146025     224.732285569296     66648.9157232929     2453.38561052904     1.80407843490206    -38289.1738187891      63337.054434692      68801.857691255     67807.8350439315         11.897069931         15.009448051         13.739188351 
                23.5      235     245.917517513611    -40673.8559861666     -40898.897242323     225.041256156417     66417.3457441287     2453.38561052904     1.80407843490206    -38297.4358758552     62956.6393468292     68668.2255578533     67627.1723277035         11.897069931         15.009448051         13.739188351 
                23.6      236     246.234469767763    -40673.8323823708    -40899.1636842878     225.331301917032     66188.2972191802     2453.38561052904     1.80407843490206    -38305.6076540763     62563.0435913776     68532.9514683361     67468.8965978268         11.897069931         15.009448051         13.739188351 
                23.7      237     246.531238555836    -40673.8086344582    -40899.4115120707     225.602877612539     65954.5878535833     2453.38561052904     1.80407843490206    -38313.9460535839      62152.922893255     68393.1782959005     67317.6623715944         11.897069931         15.009448051         13.739188351 
                23.8      238     246.808582923882    -40673.7847395656    -40899.6414174182      225.85667785257     65717.1050620845     2453.38561052904     1.80407843490206    -38322.4193197153     61727.9502882887     68249.5674323121     67173.7974656528         11.897069931         15.009448051         13.739188351 
                23.9      239     247.067898236907    -40673.7607066481    -40899.8546861959     226.093979547764     65476.8389810331     2453.38561052904     1.80407843490206    -38330.9920342354     61290.1122896334     68102.3431011853     67038.0615522807         11.897069931         15.009448051         13.739188351 
[...]
                44.4      444     334.911725660278    -40667.1181288357     -40973.598757813     306.480628977276     66131.6984814248     2453.38561052904     1.80407843490206     -38300.918509752     69172.5474981552     65272.7275060593       63949.82044006         11.897069931         15.009448051         13.739188351 
                44.5      445     335.169189303676    -40667.0679700129    -40973.7842062064     306.716236193512     66080.4523437056     2453.38561052904     1.80407843490206    -38302.7019435078     69676.8796580545     64782.7611257813      63781.716247281         11.897069931         15.009448051         13.739188351 
                44.6      446      335.55816911214    -40667.0179117477    -40974.0901067424     307.072194994663     65947.8505984614     2453.38561052904     1.80407843490206    -38307.3963906205     69922.4404526479     64307.6006505353     63613.5106922012         11.897069931         15.009448051         13.739188351 
                44.7      447     336.248202017355     -40666.972859206    -40974.6765093054     307.703650099403     65675.9034191893     2453.38561052904     1.80407843490206    -38317.0816387784     69735.1289256788     63851.1743203799     63441.4070115092         11.897069931         15.009448051         13.739188351 
                44.8      448     337.326422327355    -40666.9353136477    -40975.6256525175     308.690338869805     65239.2776324031     2453.38561052904     1.80407843490206     -38332.666613042     69033.5093022882     63415.3169518179     63269.0066431033         11.897069931         15.009448051         13.739188351 
                44.9      449     338.759075653125    -40666.9038334023    -40976.9052057736     310.001372371313     64654.4636074827     2453.38561052904     1.80407843490206     -38353.559844467     67852.6562422003      63001.813219002      63108.921361246         11.897069931         15.009448051         13.739188351 
                  45      450     340.412439108918    -40666.8739724311    -40978.3883520609     311.514379629749     63973.8948360473     2453.38561052904     1.80407843490206      -38377.88081078     66333.8037566717     62611.1420612333     62976.7386902368         11.897069931         15.009448051         13.739188351 
                45.1      451     342.119330566819    -40666.8409628996    -40979.9173337274     313.076370827823     63273.6851359163     2453.38561052904     1.80407843490206    -38402.9013831732     64689.3089572827     62243.2258328777     62888.5206175886         11.897069931         15.009448051         13.739188351 
                45.2      452     343.752215822382    -40666.8019516516     -40981.372589959     314.570638307369     62636.8268870017     2453.38561052904     1.80407843490206    -38425.6492317912     63155.1620347529     61898.2806745457     62857.0379517066         11.897069931         15.009448051         13.739188351 
                45.3      453     345.269258368083    -40666.7563446241    -40982.7152417411     315.958897116986     62140.0706799863     2453.38561052904     1.80407843490206    -38443.3776177929     61953.5551766572     61576.9650565611     62889.6918067405         11.897069931         15.009448051         13.739188351 
                45.4      454     346.715861148581    -40666.7112152583     -40983.993911144     317.282695885671     61820.5982415022     2453.38561052904     1.80407843490206    -38454.7632482534     61199.5852215283     61276.0722211661     62986.1372818122         11.897069931         15.009448051         13.739188351 
                45.5      455     348.138630078809    -40666.6717409371    -40985.2564250281     318.584684090968     61545.5922612493     2453.38561052904     1.80407843490206    -38464.5635188754     60518.5457817353      60994.174266943     63124.0567350697         11.897069931         15.009448051         13.739188351 
                45.6      456     349.535190053499    -40666.6322583009    -40986.4949465543      319.86268825342     61288.7313924544     2453.38561052904     1.80407843490206    -38473.7145470511     59837.2548134024     60730.4619307853     63298.4774331756         11.897069931         15.009448051         13.739188351 
                45.7      457      350.89344342428    -40666.5927713318    -40987.6984090417     321.105637709927     61049.4313524417     2453.38561052904     1.80407843490206    -38482.2372424624     59156.3421348901      60483.233255419     63508.7186670162         11.897069931         15.009448051         13.739188351 
                45.8      458     352.201193348558    -40666.5532824619    -40988.8556534858       322.3023710239     60828.1737914372     2453.38561052904     1.80407843490206    -38490.1143740422     58478.1795087799     60251.6909557588     63754.6509097729         11.897069931         15.009448051         13.739188351 
                45.9      459     353.446165194366    -40666.5138131003    -40989.9554686733     323.441655573015     60623.9401652187     2453.38561052904     1.80407843490206    -38497.3824068264     57802.2947356625     60034.0464614104     64035.4792985833         11.897069931         15.009448051         13.739188351 
                  46      460     354.616031137232    -40666.4743637419       -40990.9865738     324.512210058027     60437.3042437021     2453.38561052904     1.80407843490206    -38504.0208117579     57130.5157895511     59830.4225625366     64350.9743790186         11.897069931         15.009448051         13.739188351 
                46.1      461     355.698528342369    -40666.4349493902    -40991.9377620425     325.502812652315     60267.7823118463     2453.38561052904     1.80407843490206    -38510.0469112187     56463.2388076219     59639.6714079363     64700.4367199809         11.897069931         15.009448051         13.739188351 
                46.2      462     356.681586823795    -40666.3955620679    -40992.7979800748     326.402418006875     60115.0820208941     2453.38561052904     1.80407843490206     -38515.471157503     55801.6166658846     59460.5879110203     65083.0414857773         11.897069931         15.009448051         13.739188351 
                46.3      463     357.553640152622    -40666.3561882878      -40993.55662987     327.200441582173      59979.118567189     2453.38561052904     1.80407843490206     -38520.296571408     55146.4838757421     59293.3613914468      65497.510434378         11.897069931         15.009448051         13.739188351 
                46.4      464     358.303846509735    -40666.3170211525    -40994.2039830878     327.886961935372     59860.8267060497     2453.38561052904     1.80407843490206    -38524.4899003856     54500.4968626416     59137.7856164821     65944.1976390255         11.897069931         15.009448051         13.739188351 
                46.5      465      358.91450683211     -40666.279545436    -40994.7253279362     328.445782500176     59790.8819536654     2453.38561052904     1.80407843490206    -38526.9550557864     53900.2482593626     58995.4907673055     66476.9068343282         11.897069931         15.009448051         13.739188351 
                46.6      466     359.355433024529    -40666.2422310209    -40995.0915089094     328.849277888457     59785.2853232237     2453.38561052904     1.80407843490206    -38527.1179894387     53365.5360278952     58866.2729433634     67124.0469984124         11.897069931         15.009448051         13.739188351 
                46.7      467     359.593036717658    -40666.2044656662    -40995.2711767579      329.06671109171     59842.9069808351     2453.38561052904     1.80407843490206    -38525.0185146856     52896.5009265248     58748.9826208501     67883.2373951304         11.897069931         15.009448051         13.739188351 
                46.8      468     359.603397605929    -40666.1653700176    -40995.2415624482     329.076192430555     59954.4018253476     2453.38561052904     1.80407843490206    -38520.9901209444     52484.4914576482     58642.3047851692     68736.4092332255         11.897069931         15.009448051         13.739188351 
                46.9      469     359.385978087005     -40666.124290893    -40995.0015208335     328.877229940423     60099.7209441748     2453.38561052904     1.80407843490206     -38515.749507383     52109.4931060535     58545.8792486878     69643.7904777832         11.897069931         15.009448051         13.739188351 
                  47      470     358.972989813073    -40666.0815186864    -40994.5808194704        328.499300784     60249.9578423892     2453.38561052904     1.80407843490206    -38510.3312420394     51742.2548984688     58459.7673226137     70547.8513060852         11.897069931         15.009448051         13.739188351 
                47.1      471     358.424264765274    -40666.0384900263    -40994.0356477532      327.99715772689     60374.0802884121     2453.38561052904     1.80407843490206    -38505.8470982825     51353.3363669178     58385.5241311717     71383.3803671467         11.897069931         15.009448051         13.739188351 
                47.2      472     357.805115512227    -40665.9970839331     -40993.427652801     327.430568867899     60445.7573924268     2453.38561052904     1.80407843490206    -38503.2410773357     50917.4451405677     58326.3253830715     72093.5016536411         11.897069931         15.009448051         13.739188351 
                47.3      473     357.130718457782    -40665.9748254462    -40992.7882477122     326.813422266002     60499.4661242191     2453.38561052904     1.80407843490206     -38501.297114377     50448.1432600683     58289.6092747796     72760.6458378094         11.897069931         15.009448051         13.739188351 
                47.4      474     356.229980974813    -40665.9586902158    -40991.9478397879     325.989149572116     60773.3079288947     2453.38561052904     1.80407843490206    -38491.4828885365     50070.8741900056     58305.0328921809     73944.0167044976         11.897069931         15.009448051         13.739188351 
                47.5      475     354.892752772174    -40665.9204142086    -40990.6858546382     324.765440429586     61251.6958160866     2453.38561052904     1.80407843490206     -38474.327840052     49801.0371416255     58375.0761196991     75578.9741869353         11.897069931         15.009448051         13.739188351 
                47.6      476     353.231063014314    -40665.8536356099    -40989.0984493097     323.244813699812     61836.1824960366     2453.38561052904     1.80407843490206    -38453.3480622227     49620.6128020054     58487.8925665495      77400.042119555         11.897069931         15.009448051         13.739188351 
                47.7      477     351.772985250209    -40665.7723114349    -40987.6828255088     321.910514073964     62385.8810779992     2453.38561052904     1.80407843490206    -38433.5984608808     49490.3919610915     58622.6343615911      79044.616911315         11.897069931         15.009448051         13.739188351 
                47.8      478     351.232411443384    -40665.7060364605    -40987.1218667487     321.415830288266     62761.3001755125     2453.38561052904     1.80407843490206    -38420.0996483196     49367.5262920744      58754.236754348     80162.1374801151         11.897069931         15.009448051         13.739188351 
                47.9      479     352.062551912329    -40665.6762523245    -40987.8517513659     322.175499041457     62884.3387346403     2453.38561052904     1.80407843490206     -38415.667530682     49233.2773386404     58863.0913127609     80556.6475525197         11.897069931         15.009448051         13.739188351 
                  48      480     354.146507257875    -40665.6746238252    -40989.7571685033     324.082544678048     62767.7660370552     2453.38561052904     1.80407843490206    -38419.8368864302     49098.9829556084     58946.1880449578     80258.1271105992         11.897069931         15.009448051         13.739188351 
                48.1      481     356.928041624568    -40665.6693867819    -40992.2973377175     326.627950935609     62483.2617306273     2453.38561052904     1.80407843490206    -38430.0112455102     48975.4644433991     59015.4963379765     79458.8244105065         11.897069931         15.009448051         13.739188351 
                48.2      482     359.876904740214    -40665.6378471081    -40994.9643282928     329.326481184645     62100.0896747929     2453.38561052904     1.80407843490206    -38443.6896451452     48834.0294282082     59093.1301921192     78373.1094040513         11.897069931         15.009448051         13.739188351 
                48.3      483     362.822982182482      -40665.58924733    -40997.6117095697     332.022462239777     61644.8665233375     2453.38561052904     1.80407843490206     -38459.928980991     48601.6667648552     59196.5576878577     77136.3751172995         11.897069931         15.009448051         13.739188351 
                48.4      484     365.762290642894    -40665.6024646523    -41000.3147135931     334.712248940824     61215.1063668309     2453.38561052904     1.80407843490206    -38475.3190651105     48231.3900814413     59348.9688756077     76064.9601434436         11.897069931         15.009448051         13.739188351 
                48.5      485     367.857592242424    -40665.7014373581    -41002.3311149911     336.629677632981      61642.862794825     2453.38561052904     1.80407843490206     -38460.112864651     47955.9210785231     59710.7052924271     77261.9620135247         11.897069931         15.009448051         13.739188351 
                48.6      486     367.584497164018    -40665.7402455848    -41002.1200115396     336.379765954805     62987.7374962836     2453.38561052904     1.80407843490206    -38412.0319046065     47917.1539240173     60281.3211727708     80764.7373920627         11.897069931         15.009448051         13.739188351 
                48.7      487     364.348962657527    -40665.6350834434    -40999.0539836695     333.418900226166     64982.4904618434     2453.38561052904     1.80407843490206    -38340.5542567183     48247.7208884029     61165.6159763703      85534.134520757         11.897069931         15.009448051         13.739188351 
                48.8      488     359.746335668134    -40665.3813864084    -40994.5883827012     329.206996292746     67020.0858976127     2453.38561052904     1.80407843490206    -38267.3951655278     48912.9384284235     62115.3596322203     90031.9596321944         11.897069931         15.009448051         13.739188351 
                48.9      489     357.323777418445    -40665.1407104871    -40992.1308026848      326.99009219769     68320.5275712587     2453.38561052904     1.80407843490206    -38220.6245400742     49695.6633570341     62775.4718643054     92490.4474924366         11.897069931         15.009448051         13.739188351 
                  49      490     360.190010721519     -40665.093112822    -40994.7061200096     329.613007187572     68286.4296423628     2453.38561052904     1.80407843490206     -38221.796970145     50288.3492220356     62878.7540266268     91692.1856784262         11.897069931         15.009448051         13.739188351 
                49.1      491     368.480653909262    -40665.2415458048    -41002.4413925806     337.199846775813     66696.0937175678     2453.38561052904     1.80407843490206    -38278.8478016125     50321.6924415582     62333.5841825002     87433.0045286451         11.897069931         15.009448051         13.739188351 
                49.2      492     379.312361811114    -40665.4165868689    -41012.5286236228     347.112036753972     64002.7891950711     2453.38561052904     1.80407843490206    -38375.3895817979     49766.2780108329     61307.7232984947     80934.3662758859         11.897069931         15.009448051         13.739188351 
                49.3      493      389.15809621752    -40665.4671924427    -41021.5891462656     356.121953822924     61010.1699535612     2453.38561052904     1.80407843490206    -38482.5164408467     48823.0392305949     60129.0745583107     74078.3960717781         11.897069931         15.009448051         13.739188351 
                49.4      494     396.139570927037    -40665.3677555038    -41027.8785174699     362.510761966153     58510.3754147627     2453.38561052904     1.80407843490206    -38571.8599340202     47802.8587414295     59124.4847952624     68603.7827075961         11.897069931         15.009448051         13.739188351 
                49.5      495     400.582953802656    -40665.1784681905    -41031.7554084185     366.576940227968     57071.1612478508     2453.38561052904     1.80407843490206    -38623.1658916761      47022.558590531     58516.3257181031     65674.5994349183         11.897069931         15.009448051         13.739188351 
                49.6      496     403.825715670738    -40665.1199753786    -41034.6643951566     369.544419777972     56495.7202500281     2453.38561052904     1.80407843490206    -38643.6967425696     46554.3676044607     58273.8983296935     64658.8948159301         11.897069931         15.009448051         13.739188351 
                49.7      497      406.55300252503    -40665.0845979702     -41037.124781636     372.040183665776     55929.3080060897     2453.38561052904     1.80407843490206    -38663.9276590357     45995.3812318501     58080.3536509969     63712.1891354222         11.897069931         15.009448051         13.739188351 
                49.8      498       408.7426674632    -40665.0487158217    -41039.0926808904     374.043965068701     55329.3739237651     2453.38561052904     1.80407843490206    -38685.3574859143     45306.2882368399     57906.5501100441     62775.2834244115         11.897069931         15.009448051         13.739188351 
                49.9      499     410.347397575105    -40665.0118488307    -41040.5243163625     375.512467531748     54710.2543619709     2453.38561052904     1.80407843490206    -38707.4727865665     44514.9698384354     57759.6001772899     61856.1930701875         11.897069931         15.009448051         13.739188351 
                  50      500     411.339380341184    -40664.9736461644    -41041.3938857411     376.420239576705     54088.6670504342     2453.38561052904     1.80407843490206     -38729.675047907     43658.7626784844      57644.787990217     60962.4504826011         11.897069931         15.009448051         13.739188351 
Loop time of 11.6542 on 36 procs for 500 steps with 308 atoms

Performance: 0.371 ns/day, 64.746 hours/ns, 42.903 timesteps/s
-0.0% CPU use with 36 MPI tasks x no OpenMP threads

MPI task timing breakdown:
Section |  min time  |  avg time  |  max time  |%varavg| %total
---------------------------------------------------------------
Pair    | 2.6447     | 5.4585     | 9.689      |  74.5 | 46.84
Neigh   | 1.3073     | 1.3423     | 1.3893     |   1.7 | 11.52
Comm    | 0.13646    | 4.3791     | 7.2199     |  83.1 | 37.58
Output  | 0.46959    | 0.46981    | 0.47528    |   0.1 |  4.03
Modify  | 0.0032074  | 0.0035321  | 0.0039506  |   0.3 |  0.03
Other   |            | 0.0009272  |            |       |  0.01

Nlocal:        8.55556 ave          12 max           5 min
Histogram: 1 4 6 0 5 9 0 7 2 2
Nghost:        738.028 ave         763 max         706 min
Histogram: 1 1 3 4 4 7 4 6 4 2
Neighs:        0.00000 ave           0 max           0 min
Histogram: 36 0 0 0 0 0 0 0 0 0
FullNghs:      1538.56 ave        2172 max         916 min
Histogram: 1 4 6 1 4 9 2 5 2 2

Total # of neighbors = 55388
Ave neighs/atom = 179.83117
Neighbor list builds = 500
Dangerous builds not checked
Total wall time: 0:00:11
