LAMMPS (29 Oct 2020)
Reading data file ...
  triclinic box = (0.0000000 0.0000000 0.0000000) to (11.897070 15.009448 13.739188) with tilt (0.0000000 -2.8161053 0.0000000)
  3 by 4 by 3 MPI processor grid
  reading atoms ...
  308 atoms
  read_data CPU = 0.007 seconds
chimesFF: 
chimesFF: 01000011011010001001001010011010100010101010011 0100010101101110110011101101001011011101100101  
chimesFF: 
chimesFF:       _____  _      _____  __  __  ______   _____   ______                _                      
chimesFF:      / ____|| |    |_   _||  \/  ||  ____| / ____| |  ____|              (_)                    
chimesFF:     | |     | |__    | |  | \  / || |__   | (___   | |__    _ __    __ _  _  _ __    ___        
chimesFF:     | |     | '_ \   | |  | |\/| ||  __|   \___ \  |  __|  | '_ \  / _` || || '_ \  / _ \ 
chimesFF:     | |____ | | | | _| |_ | |  | || |____  ____) | | |____ | | | || (_| || || | | ||  __/        
chimesFF:      \_____||_| |_||_____||_|  |_||______||_____/  |______||_| |_| \__, ||_||_| |_| \___|     
chimesFF:                                                                     __/ |                        
chimesFF:                                                                    |___/                         
chimesFF: 
chimesFF:                      Copyright (C) 2020 R.K. Lindsey, L.E. Fried, N. Goldman                     
chimesFF: 
chimesFF: 01000011011010001001001010011010100010101010011 0100010101101110110011101101001011011101100101   
chimesFF: 

************************* WARNING (pair_style chimesFF) ************************
Assuming n-body interactions have longer cutoffs than all (n+1)-body interactions
************************* WARNING (pair_style chimesFF) ************************

chimesFF: Reading parameters from file: ../../../1-fit/ChIMES_params.txt
chimesFF: Using respective 2, 3, and 4-body orders of: 12 8 0
chimesFF: Note: Ignoring polynomial domain; assuming [-1,1]
chimesFF: Will consider 5 atom types:
chimesFF: 	0 Al
chimesFF: 	1 C
chimesFF: 	2 H
chimesFF: 	3 N
chimesFF: 	4 O
chimesFF: Will consider 15 atom pair types
chimesFF: Detected version 2 pair specification (no S_DELTA)
chimesFF: 	0 Al Al
chimesFF: 	1 C C
chimesFF: 	2 H H
chimesFF: 	3 N N
chimesFF: 	4 O O
chimesFF: 	5 Al C
chimesFF: 	6 Al H
chimesFF: 	7 Al N
chimesFF: 	8 Al O
chimesFF: 	9 C H
chimesFF: 	10 C N
chimesFF: 	11 C O
chimesFF: 	12 H N
chimesFF: 	13 H O
chimesFF: 	14 N O
chimesFF: Read the following pair type information:
chimesFF: 	Al Al r_cut_in: 2.75200 r_cut_out: 6.00000 MORSE 2.40000
chimesFF: 	C C r_cut_in: 0.95100 r_cut_out: 6.00000 MORSE 1.54000
chimesFF: 	H H r_cut_in: 0.45300 r_cut_out: 6.00000 MORSE 0.74000
chimesFF: 	N N r_cut_in: 0.93700 r_cut_out: 6.00000 MORSE 1.35000
chimesFF: 	O O r_cut_in: 1.14300 r_cut_out: 6.00000 MORSE 1.21000
chimesFF: 	Al C r_cut_in: 2.31000 r_cut_out: 6.00000 MORSE 2.00000
chimesFF: 	Al H r_cut_in: 1.96500 r_cut_out: 6.00000 MORSE 1.60000
chimesFF: 	Al N r_cut_in: 3.49800 r_cut_out: 6.00000 MORSE 1.90000
chimesFF: 	Al O r_cut_in: 1.44800 r_cut_out: 6.00000 MORSE 1.70000
chimesFF: 	C H r_cut_in: 0.69100 r_cut_out: 6.00000 MORSE 1.09000
chimesFF: 	C N r_cut_in: 0.99600 r_cut_out: 6.00000 MORSE 1.48000
chimesFF: 	C O r_cut_in: 0.85300 r_cut_out: 6.00000 MORSE 1.16000
chimesFF: 	H N r_cut_in: 0.67100 r_cut_out: 6.00000 MORSE 1.01000
chimesFF: 	H O r_cut_in: 0.54200 r_cut_out: 6.00000 MORSE 0.97000
chimesFF: 	N O r_cut_in: 1.04200 r_cut_out: 6.00000 MORSE 1.27000
chimesFF: Will use cutoff style TERSOFF
 0.95000
chimesFF: Will use penalty distance: 0.30000
chimesFF: Will use penalty scaling: 100000.00000
chimesFF: Will use single atom energy offsets: 
chimesFF: 	1 Al 0.00000
chimesFF: 	2 C -108.90174
chimesFF: 	3 H 0.00000
chimesFF: 	4 N -167.95251
chimesFF: 	5 O -244.30465
chimesFF: Read 2B parameters for pair: 0 Al Al
chimesFF: 	0 0.00000
chimesFF: 	1 0.00000
chimesFF: 	2 0.00000
chimesFF: 	3 0.00000
chimesFF: 	4 0.00000
chimesFF: 	5 0.00000
chimesFF: 	6 0.00000
chimesFF: 	7 0.00000
chimesFF: 	8 0.00000
chimesFF: 	9 0.00000
chimesFF: 	10 -0.38175
chimesFF: 	11 0.00000
chimesFF: Read 2B parameters for pair: 1 C C
chimesFF: 	0 0.00000
chimesFF: 	1 0.00000
chimesFF: 	2 2.38563
chimesFF: 	3 4.49284
chimesFF: 	4 -2.47542
chimesFF: 	5 -9.49562
chimesFF: 	6 -4.11891
chimesFF: 	7 3.93150
chimesFF: 	8 0.34066
chimesFF: 	9 -0.42333
chimesFF: 	10 -0.61850
chimesFF: 	11 1.32704
chimesFF: Read 2B parameters for pair: 2 H H
chimesFF: 	0 -0.02549
chimesFF: 	1 0.00000
chimesFF: 	2 0.00000
chimesFF: 	3 0.00000
chimesFF: 	4 -0.49675
chimesFF: 	5 0.00000
chimesFF: 	6 0.00000
chimesFF: 	7 -0.16426
chimesFF: 	8 0.00000
chimesFF: 	9 0.06181
chimesFF: 	10 0.41547
chimesFF: 	11 0.10732
chimesFF: Read 2B parameters for pair: 3 N N
chimesFF: 	0 0.00000
chimesFF: 	1 0.00000
chimesFF: 	2 0.00000
chimesFF: 	3 0.00000
chimesFF: 	4 -0.44084
chimesFF: 	5 0.00000
chimesFF: 	6 0.00000
chimesFF: 	7 0.00000
chimesFF: 	8 0.00000
chimesFF: 	9 -0.89874
chimesFF: 	10 0.00000
chimesFF: 	11 1.08805
chimesFF: Read 2B parameters for pair: 4 O O
chimesFF: 	0 0.00000
chimesFF: 	1 -4.64163
chimesFF: 	2 0.00000
chimesFF: 	3 5.63528
chimesFF: 	4 0.00000
chimesFF: 	5 -1.90275
chimesFF: 	6 0.00000
chimesFF: 	7 0.00000
chimesFF: 	8 0.03489
chimesFF: 	9 0.00000
chimesFF: 	10 -0.11975
chimesFF: 	11 0.33367
chimesFF: Read 2B parameters for pair: 5 Al C
chimesFF: 	0 0.00000
chimesFF: 	1 0.00000
chimesFF: 	2 0.00000
chimesFF: 	3 0.00000
chimesFF: 	4 -4.70684
chimesFF: 	5 0.00000
chimesFF: 	6 0.00000
chimesFF: 	7 -0.16952
chimesFF: 	8 0.00000
chimesFF: 	9 0.00000
chimesFF: 	10 -0.71744
chimesFF: 	11 0.46287
chimesFF: Read 2B parameters for pair: 6 Al H
chimesFF: 	0 0.00000
chimesFF: 	1 0.00000
chimesFF: 	2 -0.90225
chimesFF: 	3 -0.05134
chimesFF: 	4 0.00000
chimesFF: 	5 -0.03930
chimesFF: 	6 0.26432
chimesFF: 	7 0.21089
chimesFF: 	8 0.00000
chimesFF: 	9 0.00000
chimesFF: 	10 -0.11159
chimesFF: 	11 0.04203
chimesFF: Read 2B parameters for pair: 7 Al N
chimesFF: 	0 0.00000
chimesFF: 	1 0.00000
chimesFF: 	2 0.00000
chimesFF: 	3 0.00000
chimesFF: 	4 0.00000
chimesFF: 	5 0.00000
chimesFF: 	6 0.00000
chimesFF: 	7 0.00000
chimesFF: 	8 0.00000
chimesFF: 	9 0.00000
chimesFF: 	10 0.18132
chimesFF: 	11 0.00000
chimesFF: Read 2B parameters for pair: 8 Al O
chimesFF: 	0 0.00000
chimesFF: 	1 0.00000
chimesFF: 	2 1.91463
chimesFF: 	3 2.34233
chimesFF: 	4 0.00000
chimesFF: 	5 0.00000
chimesFF: 	6 -1.04294
chimesFF: 	7 0.00000
chimesFF: 	8 0.00000
chimesFF: 	9 0.00000
chimesFF: 	10 -0.09751
chimesFF: 	11 -0.06136
chimesFF: Read 2B parameters for pair: 9 C H
chimesFF: 	0 -1.44300
chimesFF: 	1 0.00000
chimesFF: 	2 3.86700
chimesFF: 	3 -0.21184
chimesFF: 	4 -7.78155
chimesFF: 	5 -4.82936
chimesFF: 	6 0.00000
chimesFF: 	7 1.15294
chimesFF: 	8 -0.63747
chimesFF: 	9 -0.13160
chimesFF: 	10 1.03466
chimesFF: 	11 0.59022
chimesFF: Read 2B parameters for pair: 10 C N
chimesFF: 	0 0.00000
chimesFF: 	1 0.17810
chimesFF: 	2 -12.65766
chimesFF: 	3 3.39668
chimesFF: 	4 3.84329
chimesFF: 	5 -3.32581
chimesFF: 	6 -6.61872
chimesFF: 	7 0.00000
chimesFF: 	8 -1.72245
chimesFF: 	9 -0.48552
chimesFF: 	10 -1.78790
chimesFF: 	11 0.00000
chimesFF: Read 2B parameters for pair: 11 C O
chimesFF: 	0 -4.32084
chimesFF: 	1 0.00000
chimesFF: 	2 9.64648
chimesFF: 	3 0.00000
chimesFF: 	4 -16.44186
chimesFF: 	5 -14.70186
chimesFF: 	6 -2.84244
chimesFF: 	7 -1.47255
chimesFF: 	8 -2.51158
chimesFF: 	9 -0.31105
chimesFF: 	10 0.86443
chimesFF: 	11 -0.24018
chimesFF: Read 2B parameters for pair: 12 H N
chimesFF: 	0 0.95416
chimesFF: 	1 0.00000
chimesFF: 	2 0.00000
chimesFF: 	3 -1.58805
chimesFF: 	4 -4.18107
chimesFF: 	5 -2.28325
chimesFF: 	6 0.00000
chimesFF: 	7 0.25305
chimesFF: 	8 0.00000
chimesFF: 	9 0.00000
chimesFF: 	10 0.61442
chimesFF: 	11 0.27682
chimesFF: Read 2B parameters for pair: 13 H O
chimesFF: 	0 6.77731
chimesFF: 	1 15.04400
chimesFF: 	2 0.00000
chimesFF: 	3 -21.57492
chimesFF: 	4 -27.33832
chimesFF: 	5 -14.04126
chimesFF: 	6 -4.53354
chimesFF: 	7 -0.96527
chimesFF: 	8 0.00000
chimesFF: 	9 1.63006
chimesFF: 	10 0.80204
chimesFF: 	11 0.50314
chimesFF: Read 2B parameters for pair: 14 N O
chimesFF: 	0 0.00000
chimesFF: 	1 -2.60604
chimesFF: 	2 0.00000
chimesFF: 	3 1.76741
chimesFF: 	4 0.00000
chimesFF: 	5 -1.48092
chimesFF: 	6 0.00000
chimesFF: 	7 0.00000
chimesFF: 	8 -1.64404
chimesFF: 	9 0.00000
chimesFF: 	10 0.45171
chimesFF: 	11 0.34385
chimesFF: Built the following 2-body pair "slow" map:
chimesFF: 	0 AlAl(i: 0)
chimesFF: 	5 AlC(i: 1)
chimesFF: 	6 AlH(i: 2)
chimesFF: 	7 AlN(i: 3)
chimesFF: 	8 AlO(i: 4)
chimesFF: 	5 CAl(i: 5)
chimesFF: 	1 CC(i: 6)
chimesFF: 	9 CH(i: 7)
chimesFF: 	10 CN(i: 8)
chimesFF: 	11 CO(i: 9)
chimesFF: 	6 HAl(i: 10)
chimesFF: 	9 HC(i: 11)
chimesFF: 	2 HH(i: 12)
chimesFF: 	12 HN(i: 13)
chimesFF: 	13 HO(i: 14)
chimesFF: 	7 NAl(i: 15)
chimesFF: 	10 NC(i: 16)
chimesFF: 	12 NH(i: 17)
chimesFF: 	3 NN(i: 18)
chimesFF: 	14 NO(i: 19)
chimesFF: 	8 OAl(i: 20)
chimesFF: 	11 OC(i: 21)
chimesFF: 	13 OH(i: 22)
chimesFF: 	14 ON(i: 23)
chimesFF: 	4 OO(i: 24)
chimesFF: Built the following 2-body pair "fast" map:
chimesFF: 	AlAl: 0 0
chimesFF: 	AlC: 1 5
chimesFF: 	AlH: 2 6
chimesFF: 	AlN: 3 7
chimesFF: 	AlO: 4 8
chimesFF: 	CAl: 5 5
chimesFF: 	CC: 6 1
chimesFF: 	CH: 7 9
chimesFF: 	CN: 8 10
chimesFF: 	CO: 9 11
chimesFF: 	HAl: 10 6
chimesFF: 	HC: 11 9
chimesFF: 	HH: 12 2
chimesFF: 	HN: 13 12
chimesFF: 	HO: 14 13
chimesFF: 	NAl: 15 7
chimesFF: 	NC: 16 10
chimesFF: 	NH: 17 12
chimesFF: 	NN: 18 3
chimesFF: 	NO: 19 14
chimesFF: 	OAl: 20 8
chimesFF: 	OC: 21 11
chimesFF: 	OH: 22 13
chimesFF: 	ON: 23 14
chimesFF: 	OO: 24 4
chimesFF: Read 3B parameters for triplet: 0 Al Al Al
chimesFF: Read 3B parameters for triplet: 1 Al Al C
chimesFF: Read 3B parameters for triplet: 2 Al Al H
chimesFF: 	0 4 7 -1.92694
chimesFF: 	0 7 4 -1.92694
chimesFF: 	5 3 6 0.78926
chimesFF: 	5 6 3 0.78926
chimesFF: 	7 0 4 -0.04510
chimesFF: 	7 4 0 -0.04510
chimesFF: 	7 3 4 0.15260
chimesFF: 	7 4 3 0.15260
chimesFF: 	7 3 6 -0.41131
chimesFF: 	7 6 3 -0.41131
chimesFF: Read 3B parameters for triplet: 3 Al Al N
chimesFF: Read 3B parameters for triplet: 4 Al Al O
chimesFF: 	0 3 4 -4.48919
chimesFF: 	0 4 3 -4.48919
chimesFF: 	0 3 7 1.12258
chimesFF: 	0 7 3 1.12258
chimesFF: 	0 4 5 1.22906
chimesFF: 	0 5 4 1.22906
chimesFF: 	2 3 4 0.04504
chimesFF: 	2 4 3 0.04504
chimesFF: 	2 5 7 1.51396
chimesFF: 	2 7 5 1.51396
chimesFF: 	4 5 7 -0.79415
chimesFF: 	4 7 5 -0.79415
chimesFF: 	6 0 6 -0.43793
chimesFF: 	6 6 0 -0.43793
chimesFF: 	6 3 7 -0.50801
chimesFF: 	6 7 3 -0.50801
chimesFF: 	7 4 7 0.19867
chimesFF: 	7 7 4 0.19867
chimesFF: Read 3B parameters for triplet: 5 Al C C
chimesFF: 	0 6 7 -1.28548
chimesFF: 	6 0 7 -1.28548
chimesFF: Read 3B parameters for triplet: 6 Al C H
chimesFF: 	3 0 3 -1.82798
chimesFF: 	3 2 0 9.60983
chimesFF: 	6 0 3 1.72628
chimesFF: 	6 0 4 -0.60475
chimesFF: 	6 4 7 -0.63814
chimesFF: 	6 7 0 1.37502
chimesFF: Read 3B parameters for triplet: 7 Al C N
chimesFF: Read 3B parameters for triplet: 8 Al C O
chimesFF: 	0 1 6 2.35960
chimesFF: 	0 3 5 1.91511
chimesFF: 	0 3 6 -0.66477
chimesFF: 	0 3 7 -2.63363
chimesFF: 	0 5 3 1.86514
chimesFF: 	0 6 4 -1.93231
chimesFF: 	0 7 4 -1.25729
chimesFF: 	1 0 4 -5.80619
chimesFF: 	3 0 4 1.98588
chimesFF: 	3 0 7 -1.82184
chimesFF: 	3 5 6 2.72352
chimesFF: 	3 6 6 0.59329
chimesFF: 	3 7 5 0.24053
chimesFF: 	3 7 7 -0.44323
chimesFF: 	4 0 7 0.04693
chimesFF: 	4 6 6 1.93229
chimesFF: 	4 6 7 2.92216
chimesFF: 	4 7 0 0.77107
chimesFF: 	5 0 6 1.59721
chimesFF: 	5 6 3 0.79240
chimesFF: 	5 7 4 -0.99613
chimesFF: 	6 0 4 2.12321
chimesFF: 	6 0 7 -0.07796
chimesFF: 	6 3 6 -0.79362
chimesFF: 	6 3 7 -0.35958
chimesFF: 	6 5 0 0.06238
chimesFF: 	6 6 0 -2.72874
chimesFF: 	6 6 1 -0.56129
chimesFF: 	6 6 3 0.23060
chimesFF: 	6 7 4 -0.91332
chimesFF: 	6 7 5 -1.01566
chimesFF: 	6 7 7 0.48476
chimesFF: 	7 0 4 0.49703
chimesFF: 	7 3 4 -0.50012
chimesFF: 	7 4 0 0.55109
chimesFF: 	7 4 7 -1.62852
chimesFF: 	7 5 0 0.29011
chimesFF: 	7 5 3 -1.53537
chimesFF: 	7 6 5 1.05094
chimesFF: 	7 7 1 -0.42177
chimesFF: 	7 7 3 0.49814
chimesFF: 	7 7 6 -0.07833
chimesFF: Read 3B parameters for triplet: 9 Al H H
chimesFF: 	0 7 1 -0.78357
chimesFF: 	7 0 1 -0.78357
chimesFF: 	2 3 0 0.80943
chimesFF: 	3 2 0 0.80943
chimesFF: 	2 6 0 -0.34758
chimesFF: 	6 2 0 -0.34758
chimesFF: 	3 7 0 0.39341
chimesFF: 	7 3 0 0.39341
chimesFF: 	4 6 4 -0.95795
chimesFF: 	6 4 4 -0.95795
chimesFF: 	5 7 0 -0.34897
chimesFF: 	7 5 0 -0.34897
chimesFF: 	6 7 1 -0.61140
chimesFF: 	7 6 1 -0.61140
chimesFF: Read 3B parameters for triplet: 10 Al H N
chimesFF: Read 3B parameters for triplet: 11 Al H O
chimesFF: 	0 2 4 0.47698
chimesFF: 	0 3 4 1.32157
chimesFF: 	0 3 7 0.07544
chimesFF: 	0 4 5 -1.13204
chimesFF: 	0 5 2 1.83900
chimesFF: 	0 6 4 0.20026
chimesFF: 	0 6 6 -0.32157
chimesFF: 	0 7 3 0.10886
chimesFF: 	0 7 6 0.31753
chimesFF: 	0 7 7 0.02843
chimesFF: 	2 0 7 0.11316
chimesFF: 	2 3 0 -0.89018
chimesFF: 	2 6 7 -0.35843
chimesFF: 	3 0 3 -0.66027
chimesFF: 	3 0 7 0.76773
chimesFF: 	3 5 5 0.78131
chimesFF: 	3 5 7 1.56706
chimesFF: 	3 6 2 -3.58793
chimesFF: 	3 6 3 -0.31869
chimesFF: 	3 7 3 -0.54564
chimesFF: 	3 7 7 -0.06035
chimesFF: 	4 0 6 0.51836
chimesFF: 	4 6 7 0.36889
chimesFF: 	4 7 3 -0.66412
chimesFF: 	5 0 3 0.04991
chimesFF: 	5 0 5 -0.65684
chimesFF: 	5 3 0 0.24729
chimesFF: 	5 3 4 0.55687
chimesFF: 	5 4 4 0.90141
chimesFF: 	5 5 5 -0.84171
chimesFF: 	6 0 3 0.01133
chimesFF: 	6 0 6 -0.29747
chimesFF: 	6 3 3 -0.46814
chimesFF: 	6 3 5 0.95941
chimesFF: 	6 4 0 0.20737
chimesFF: 	6 5 6 -0.55453
chimesFF: 	6 5 7 -0.45236
chimesFF: 	6 6 0 -0.13342
chimesFF: 	6 7 1 -0.07523
chimesFF: 	6 7 3 0.23864
chimesFF: 	6 7 7 0.23424
chimesFF: 	7 0 6 -0.12025
chimesFF: 	7 3 4 -0.07182
chimesFF: 	7 3 6 0.29878
chimesFF: 	7 4 0 0.69466
chimesFF: 	7 4 4 -0.36763
chimesFF: 	7 5 3 -1.14889
chimesFF: 	7 5 6 -0.35257
chimesFF: 	7 6 7 -0.64173
chimesFF: 	7 7 3 0.30886
chimesFF: 	7 7 4 0.03914
chimesFF: 	7 7 6 0.16483
chimesFF: 	7 7 7 0.36009
chimesFF: Read 3B parameters for triplet: 12 Al N N
chimesFF: Read 3B parameters for triplet: 13 Al N O
chimesFF: Read 3B parameters for triplet: 14 Al O O
chimesFF: 	0 1 3 -2.46398
chimesFF: 	1 0 3 -2.46398
chimesFF: 	0 2 6 0.82282
chimesFF: 	2 0 6 0.82282
chimesFF: 	0 3 4 -2.68125
chimesFF: 	3 0 4 -2.68125
chimesFF: 	0 4 3 3.49758
chimesFF: 	4 0 3 3.49758
chimesFF: 	0 4 6 1.18922
chimesFF: 	4 0 6 1.18922
chimesFF: 	0 4 7 -0.37656
chimesFF: 	4 0 7 -0.37656
chimesFF: 	0 5 3 0.04466
chimesFF: 	5 0 3 0.04466
chimesFF: 	0 7 2 0.20063
chimesFF: 	7 0 2 0.20063
chimesFF: 	0 7 4 -0.60989
chimesFF: 	7 0 4 -0.60989
chimesFF: 	0 7 6 0.73021
chimesFF: 	7 0 6 0.73021
chimesFF: 	1 3 5 0.56939
chimesFF: 	3 1 5 0.56939
chimesFF: 	1 5 0 -2.79067
chimesFF: 	5 1 0 -2.79067
chimesFF: 	2 3 0 -3.24812
chimesFF: 	3 2 0 -3.24812
chimesFF: 	3 4 2 -1.62080
chimesFF: 	4 3 2 -1.62080
chimesFF: 	3 5 6 -0.33244
chimesFF: 	5 3 6 -0.33244
chimesFF: 	3 5 7 -0.20708
chimesFF: 	5 3 7 -0.20708
chimesFF: 	3 6 7 0.43552
chimesFF: 	6 3 7 0.43552
chimesFF: 	3 7 4 -0.37039
chimesFF: 	7 3 4 -0.37039
chimesFF: 	4 5 2 1.76197
chimesFF: 	5 4 2 1.76197
chimesFF: 	4 5 4 -0.32448
chimesFF: 	5 4 4 -0.32448
chimesFF: 	4 7 3 0.06593
chimesFF: 	7 4 3 0.06593
chimesFF: 	5 5 6 0.45267
chimesFF: 	5 6 2 -0.22958
chimesFF: 	6 5 2 -0.22958
chimesFF: 	5 7 7 -0.08973
chimesFF: 	7 5 7 -0.08973
chimesFF: 	6 7 4 -0.25742
chimesFF: 	7 6 4 -0.25742
chimesFF: Read 3B parameters for triplet: 15 C C C
chimesFF: 	0 2 2 0.15590
chimesFF: 	2 0 2 0.15590
chimesFF: 	2 2 0 0.15590
chimesFF: 	0 2 4 -7.75021
chimesFF: 	2 0 4 -7.75021
chimesFF: 	0 4 2 -7.75021
chimesFF: 	4 0 2 -7.75021
chimesFF: 	2 4 0 -7.75021
chimesFF: 	4 2 0 -7.75021
chimesFF: 	0 2 7 1.77607
chimesFF: 	2 0 7 1.77607
chimesFF: 	0 7 2 1.77607
chimesFF: 	7 0 2 1.77607
chimesFF: 	2 7 0 1.77607
chimesFF: 	7 2 0 1.77607
chimesFF: 	0 3 3 0.96497
chimesFF: 	3 0 3 0.96497
chimesFF: 	3 3 0 0.96497
chimesFF: 	0 3 5 -0.57287
chimesFF: 	3 0 5 -0.57287
chimesFF: 	0 5 3 -0.57287
chimesFF: 	5 0 3 -0.57287
chimesFF: 	3 5 0 -0.57287
chimesFF: 	5 3 0 -0.57287
chimesFF: 	0 5 6 0.20665
chimesFF: 	5 0 6 0.20665
chimesFF: 	0 6 5 0.20665
chimesFF: 	6 0 5 0.20665
chimesFF: 	5 6 0 0.20665
chimesFF: 	6 5 0 0.20665
chimesFF: 	0 7 7 -0.61537
chimesFF: 	7 0 7 -0.61537
chimesFF: 	7 7 0 -0.61537
chimesFF: 	1 3 5 -4.45303
chimesFF: 	3 1 5 -4.45303
chimesFF: 	1 5 3 -4.45303
chimesFF: 	5 1 3 -4.45303
chimesFF: 	3 5 1 -4.45303
chimesFF: 	5 3 1 -4.45303
chimesFF: 	1 7 7 -0.25020
chimesFF: 	7 1 7 -0.25020
chimesFF: 	7 7 1 -0.25020
chimesFF: 	2 3 4 -3.49013
chimesFF: 	3 2 4 -3.49013
chimesFF: 	2 4 3 -3.49013
chimesFF: 	4 2 3 -3.49013
chimesFF: 	3 4 2 -3.49013
chimesFF: 	4 3 2 -3.49013
chimesFF: 	2 3 5 4.16681
chimesFF: 	3 2 5 4.16681
chimesFF: 	2 5 3 4.16681
chimesFF: 	5 2 3 4.16681
chimesFF: 	3 5 2 4.16681
chimesFF: 	5 3 2 4.16681
chimesFF: 	2 4 6 -0.14605
chimesFF: 	4 2 6 -0.14605
chimesFF: 	2 6 4 -0.14605
chimesFF: 	6 2 4 -0.14605
chimesFF: 	4 6 2 -0.14605
chimesFF: 	6 4 2 -0.14605
chimesFF: 	2 5 7 -1.21670
chimesFF: 	5 2 7 -1.21670
chimesFF: 	2 7 5 -1.21670
chimesFF: 	7 2 5 -1.21670
chimesFF: 	5 7 2 -1.21670
chimesFF: 	7 5 2 -1.21670
chimesFF: 	3 3 5 2.75312
chimesFF: 	3 5 3 2.75312
chimesFF: 	5 3 3 2.75312
chimesFF: 	3 4 6 0.20413
chimesFF: 	4 3 6 0.20413
chimesFF: 	3 6 4 0.20413
chimesFF: 	6 3 4 0.20413
chimesFF: 	4 6 3 0.20413
chimesFF: 	6 4 3 0.20413
chimesFF: 	3 7 7 2.71621
chimesFF: 	7 3 7 2.71621
chimesFF: 	7 7 3 2.71621
chimesFF: 	4 4 7 2.18564
chimesFF: 	4 7 4 2.18564
chimesFF: 	7 4 4 2.18564
chimesFF: 	4 5 6 -1.46270
chimesFF: 	5 4 6 -1.46270
chimesFF: 	4 6 5 -1.46270
chimesFF: 	6 4 5 -1.46270
chimesFF: 	5 6 4 -1.46270
chimesFF: 	6 5 4 -1.46270
chimesFF: 	4 5 7 0.42655
chimesFF: 	5 4 7 0.42655
chimesFF: 	4 7 5 0.42655
chimesFF: 	7 4 5 0.42655
chimesFF: 	5 7 4 0.42655
chimesFF: 	7 5 4 0.42655
chimesFF: 	4 6 7 -0.30756
chimesFF: 	6 4 7 -0.30756
chimesFF: 	4 7 6 -0.30756
chimesFF: 	7 4 6 -0.30756
chimesFF: 	6 7 4 -0.30756
chimesFF: 	7 6 4 -0.30756
chimesFF: 	5 5 6 -1.46739
chimesFF: 	5 6 5 -1.46739
chimesFF: 	6 5 5 -1.46739
chimesFF: 	5 6 7 0.59656
chimesFF: 	6 5 7 0.59656
chimesFF: 	5 7 6 0.59656
chimesFF: 	7 5 6 0.59656
chimesFF: 	6 7 5 0.59656
chimesFF: 	7 6 5 0.59656
chimesFF: 	7 7 7 1.68348
chimesFF: Read 3B parameters for triplet: 16 C C H
chimesFF: 	0 2 4 -1.28121
chimesFF: 	0 4 2 -1.28121
chimesFF: 	0 2 5 0.77649
chimesFF: 	0 5 2 0.77649
chimesFF: 	0 3 4 -0.46258
chimesFF: 	0 4 3 -0.46258
chimesFF: 	0 3 7 -2.20335
chimesFF: 	0 7 3 -2.20335
chimesFF: 	0 4 4 1.81835
chimesFF: 	0 4 6 0.63432
chimesFF: 	0 6 4 0.63432
chimesFF: 	0 5 7 0.01418
chimesFF: 	0 7 5 0.01418
chimesFF: 	0 6 6 -1.69365
chimesFF: 	2 0 5 2.01581
chimesFF: 	2 5 0 2.01581
chimesFF: 	2 0 6 1.49406
chimesFF: 	2 6 0 1.49406
chimesFF: 	2 0 7 -0.65559
chimesFF: 	2 7 0 -0.65559
chimesFF: 	2 4 6 -0.48868
chimesFF: 	2 6 4 -0.48868
chimesFF: 	3 0 4 -3.89500
chimesFF: 	3 4 0 -3.89500
chimesFF: 	3 0 5 0.02159
chimesFF: 	3 5 0 0.02159
chimesFF: 	3 2 7 2.73431
chimesFF: 	3 7 2 2.73431
chimesFF: 	3 3 4 0.46505
chimesFF: 	3 4 3 0.46505
chimesFF: 	3 3 7 2.28225
chimesFF: 	3 7 3 2.28225
chimesFF: 	3 5 7 -3.12679
chimesFF: 	3 7 5 -3.12679
chimesFF: 	3 6 6 1.61035
chimesFF: 	4 1 6 0.04048
chimesFF: 	4 6 1 0.04048
chimesFF: 	4 5 6 -0.40253
chimesFF: 	4 6 5 -0.40253
chimesFF: 	4 6 6 0.57352
chimesFF: 	4 6 7 0.32694
chimesFF: 	4 7 6 0.32694
chimesFF: 	5 1 5 -1.33215
chimesFF: 	5 5 1 -1.33215
chimesFF: 	5 3 4 -1.55631
chimesFF: 	5 4 3 -1.55631
chimesFF: 	5 3 5 1.95496
chimesFF: 	5 5 3 1.95496
chimesFF: 	6 0 1 0.38000
chimesFF: 	6 1 0 0.38000
chimesFF: 	6 0 3 -0.22892
chimesFF: 	6 3 0 -0.22892
chimesFF: 	6 0 4 0.73496
chimesFF: 	6 4 0 0.73496
chimesFF: 	6 0 7 0.19705
chimesFF: 	6 7 0 0.19705
chimesFF: 	6 2 4 -1.21243
chimesFF: 	6 4 2 -1.21243
chimesFF: 	6 5 7 0.21821
chimesFF: 	6 7 5 0.21821
chimesFF: 	6 6 6 -0.02047
chimesFF: 	7 0 2 -0.06482
chimesFF: 	7 2 0 -0.06482
chimesFF: 	7 0 4 -0.98454
chimesFF: 	7 4 0 -0.98454
chimesFF: 	7 0 5 1.67770
chimesFF: 	7 5 0 1.67770
chimesFF: 	7 1 3 0.41517
chimesFF: 	7 3 1 0.41517
chimesFF: 	7 1 5 1.50465
chimesFF: 	7 5 1 1.50465
chimesFF: 	7 1 6 -0.02460
chimesFF: 	7 6 1 -0.02460
chimesFF: 	7 2 6 0.12944
chimesFF: 	7 6 2 0.12944
chimesFF: 	7 3 5 -1.95027
chimesFF: 	7 5 3 -1.95027
chimesFF: 	7 3 7 0.59871
chimesFF: 	7 7 3 0.59871
chimesFF: 	7 4 5 -0.53547
chimesFF: 	7 5 4 -0.53547
chimesFF: 	7 5 7 -1.09900
chimesFF: 	7 7 5 -1.09900
chimesFF: Read 3B parameters for triplet: 17 C C N
chimesFF: 	0 3 5 -5.06001
chimesFF: 	0 5 3 -5.06001
chimesFF: 	0 4 6 0.61449
chimesFF: 	0 6 4 0.61449
chimesFF: 	0 5 7 0.79972
chimesFF: 	0 7 5 0.79972
chimesFF: 	0 6 7 0.09852
chimesFF: 	0 7 6 0.09852
chimesFF: 	2 0 4 -9.97961
chimesFF: 	2 4 0 -9.97961
chimesFF: 	2 0 6 2.00337
chimesFF: 	2 6 0 2.00337
chimesFF: 	2 4 5 3.17806
chimesFF: 	2 5 4 3.17806
chimesFF: 	2 4 6 -1.25576
chimesFF: 	2 6 4 -1.25576
chimesFF: 	3 0 2 -2.34360
chimesFF: 	3 2 0 -2.34360
chimesFF: 	3 0 3 1.56749
chimesFF: 	3 3 0 1.56749
chimesFF: 	3 0 5 -1.69571
chimesFF: 	3 5 0 -1.69571
chimesFF: 	3 5 7 -0.79103
chimesFF: 	3 7 5 -0.79103
chimesFF: 	3 6 6 0.08167
chimesFF: 	3 6 7 -1.43683
chimesFF: 	3 7 6 -1.43683
chimesFF: 	3 7 7 2.41413
chimesFF: 	4 0 7 0.15839
chimesFF: 	4 7 0 0.15839
chimesFF: 	4 6 7 0.52853
chimesFF: 	4 7 6 0.52853
chimesFF: 	5 0 3 -1.04176
chimesFF: 	5 3 0 -1.04176
chimesFF: 	5 3 6 1.47856
chimesFF: 	5 6 3 1.47856
chimesFF: 	5 3 7 1.02134
chimesFF: 	5 7 3 1.02134
chimesFF: 	5 4 7 0.39673
chimesFF: 	5 7 4 0.39673
chimesFF: 	5 6 7 1.28076
chimesFF: 	5 7 6 1.28076
chimesFF: 	6 0 2 0.59634
chimesFF: 	6 2 0 0.59634
chimesFF: 	6 0 3 -0.59687
chimesFF: 	6 3 0 -0.59687
chimesFF: 	6 0 5 1.02751
chimesFF: 	6 5 0 1.02751
chimesFF: 	6 0 6 -0.46031
chimesFF: 	6 6 0 -0.46031
chimesFF: 	6 6 6 -1.94794
chimesFF: 	7 0 2 0.20517
chimesFF: 	7 2 0 0.20517
chimesFF: 	7 0 4 -0.43289
chimesFF: 	7 4 0 -0.43289
chimesFF: 	7 0 7 -0.87562
chimesFF: 	7 7 0 -0.87562
chimesFF: 	7 1 7 -0.48749
chimesFF: 	7 7 1 -0.48749
chimesFF: 	7 3 5 -0.39058
chimesFF: 	7 5 3 -0.39058
chimesFF: 	7 3 6 -2.08490
chimesFF: 	7 6 3 -2.08490
chimesFF: 	7 3 7 3.23958
chimesFF: 	7 7 3 3.23958
chimesFF: 	7 4 5 0.93438
chimesFF: 	7 5 4 0.93438
chimesFF: 	7 4 6 -1.08968
chimesFF: 	7 6 4 -1.08968
chimesFF: Read 3B parameters for triplet: 18 C C O
chimesFF: 	0 2 3 14.16043
chimesFF: 	0 3 2 14.16043
chimesFF: 	0 3 5 -0.29802
chimesFF: 	0 5 3 -0.29802
chimesFF: 	0 3 7 -0.58383
chimesFF: 	0 7 3 -0.58383
chimesFF: 	0 4 5 -0.43315
chimesFF: 	0 5 4 -0.43315
chimesFF: 	0 6 6 -3.30413
chimesFF: 	0 6 7 -2.53504
chimesFF: 	0 7 6 -2.53504
chimesFF: 	2 0 2 9.52954
chimesFF: 	2 2 0 9.52954
chimesFF: 	2 0 7 -3.48444
chimesFF: 	2 7 0 -3.48444
chimesFF: 	2 3 7 0.84466
chimesFF: 	2 7 3 0.84466
chimesFF: 	3 0 4 -10.21841
chimesFF: 	3 4 0 -10.21841
chimesFF: 	3 0 7 -1.41030
chimesFF: 	3 7 0 -1.41030
chimesFF: 	3 1 4 -6.65119
chimesFF: 	3 4 1 -6.65119
chimesFF: 	3 2 3 -6.82244
chimesFF: 	3 3 2 -6.82244
chimesFF: 	3 2 4 1.97217
chimesFF: 	3 4 2 1.97217
chimesFF: 	3 2 6 -4.88189
chimesFF: 	3 6 2 -4.88189
chimesFF: 	3 3 6 -6.70382
chimesFF: 	3 6 3 -6.70382
chimesFF: 	3 6 6 2.24339
chimesFF: 	3 6 7 0.45485
chimesFF: 	3 7 6 0.45485
chimesFF: 	3 7 7 -1.13361
chimesFF: 	4 0 5 -1.59910
chimesFF: 	4 5 0 -1.59910
chimesFF: 	4 1 3 -5.83651
chimesFF: 	4 3 1 -5.83651
chimesFF: 	4 1 6 1.73086
chimesFF: 	4 6 1 1.73086
chimesFF: 	4 2 4 2.99055
chimesFF: 	4 4 2 2.99055
chimesFF: 	4 3 4 1.39479
chimesFF: 	4 4 3 1.39479
chimesFF: 	4 3 5 1.11868
chimesFF: 	4 5 3 1.11868
chimesFF: 	4 3 6 -1.90295
chimesFF: 	4 6 3 -1.90295
chimesFF: 	4 5 5 -1.17156
chimesFF: 	4 5 7 0.66741
chimesFF: 	4 7 5 0.66741
chimesFF: 	4 6 6 0.74570
chimesFF: 	4 7 7 1.82545
chimesFF: 	5 1 4 2.48374
chimesFF: 	5 4 1 2.48374
chimesFF: 	5 4 7 -0.09024
chimesFF: 	5 7 4 -0.09024
chimesFF: 	5 5 6 0.71970
chimesFF: 	5 6 5 0.71970
chimesFF: 	5 5 7 0.59552
chimesFF: 	5 7 5 0.59552
chimesFF: 	5 6 7 -0.37700
chimesFF: 	5 7 6 -0.37700
chimesFF: 	6 0 4 2.27573
chimesFF: 	6 4 0 2.27573
chimesFF: 	6 0 5 2.38137
chimesFF: 	6 5 0 2.38137
chimesFF: 	6 0 7 -0.45412
chimesFF: 	6 7 0 -0.45412
chimesFF: 	6 1 7 0.40730
chimesFF: 	6 7 1 0.40730
chimesFF: 	6 2 5 -1.00425
chimesFF: 	6 5 2 -1.00425
chimesFF: 	6 3 4 -2.55396
chimesFF: 	6 4 3 -2.55396
chimesFF: 	6 4 5 0.51411
chimesFF: 	6 5 4 0.51411
chimesFF: 	6 4 6 1.56836
chimesFF: 	6 6 4 1.56836
chimesFF: 	6 5 5 1.86348
chimesFF: 	6 5 6 0.65540
chimesFF: 	6 6 5 0.65540
chimesFF: 	6 5 7 -0.33346
chimesFF: 	6 7 5 -0.33346
chimesFF: 	6 7 7 -0.66030
chimesFF: 	7 0 2 2.02420
chimesFF: 	7 2 0 2.02420
chimesFF: 	7 0 4 -1.68735
chimesFF: 	7 4 0 -1.68735
chimesFF: 	7 0 6 -1.36884
chimesFF: 	7 6 0 -1.36884
chimesFF: 	7 0 7 -0.67834
chimesFF: 	7 7 0 -0.67834
chimesFF: 	7 1 3 0.07576
chimesFF: 	7 3 1 0.07576
chimesFF: 	7 2 3 -7.36638
chimesFF: 	7 3 2 -7.36638
chimesFF: 	7 2 4 2.30573
chimesFF: 	7 4 2 2.30573
chimesFF: 	7 2 6 1.56769
chimesFF: 	7 6 2 1.56769
chimesFF: 	7 3 6 1.76842
chimesFF: 	7 6 3 1.76842
chimesFF: 	7 4 6 -0.43220
chimesFF: 	7 6 4 -0.43220
chimesFF: 	7 5 6 -0.13323
chimesFF: 	7 6 5 -0.13323
chimesFF: 	7 5 7 -0.28426
chimesFF: 	7 7 5 -0.28426
chimesFF: 	7 7 7 0.07174
chimesFF: Read 3B parameters for triplet: 19 C H H
chimesFF: 	0 1 1 2.55661
chimesFF: 	1 0 1 2.55661
chimesFF: 	0 1 7 -0.04451
chimesFF: 	1 0 7 -0.04451
chimesFF: 	0 2 5 1.76921
chimesFF: 	2 0 5 1.76921
chimesFF: 	0 3 5 2.43774
chimesFF: 	3 0 5 2.43774
chimesFF: 	0 4 1 -0.30435
chimesFF: 	4 0 1 -0.30435
chimesFF: 	0 4 5 1.21620
chimesFF: 	4 0 5 1.21620
chimesFF: 	0 4 7 -0.46087
chimesFF: 	4 0 7 -0.46087
chimesFF: 	0 5 5 -0.28355
chimesFF: 	5 0 5 -0.28355
chimesFF: 	0 6 4 0.70790
chimesFF: 	6 0 4 0.70790
chimesFF: 	0 7 1 0.25344
chimesFF: 	7 0 1 0.25344
chimesFF: 	0 7 4 0.45590
chimesFF: 	7 0 4 0.45590
chimesFF: 	1 3 6 -2.31786
chimesFF: 	3 1 6 -2.31786
chimesFF: 	1 4 2 -0.15130
chimesFF: 	4 1 2 -0.15130
chimesFF: 	1 6 0 -0.29051
chimesFF: 	6 1 0 -0.29051
chimesFF: 	1 6 5 -0.31838
chimesFF: 	6 1 5 -0.31838
chimesFF: 	2 3 6 0.99098
chimesFF: 	3 2 6 0.99098
chimesFF: 	2 4 3 -0.07965
chimesFF: 	4 2 3 -0.07965
chimesFF: 	2 7 4 -1.05604
chimesFF: 	7 2 4 -1.05604
chimesFF: 	3 4 0 0.65295
chimesFF: 	4 3 0 0.65295
chimesFF: 	3 4 6 -0.11744
chimesFF: 	4 3 6 -0.11744
chimesFF: 	3 4 7 0.21431
chimesFF: 	4 3 7 0.21431
chimesFF: 	3 5 3 -0.68460
chimesFF: 	5 3 3 -0.68460
chimesFF: 	3 5 6 -0.38221
chimesFF: 	5 3 6 -0.38221
chimesFF: 	3 6 5 0.49623
chimesFF: 	6 3 5 0.49623
chimesFF: 	3 7 0 0.48682
chimesFF: 	7 3 0 0.48682
chimesFF: 	3 7 4 -1.87798
chimesFF: 	7 3 4 -1.87798
chimesFF: 	3 7 7 -0.54863
chimesFF: 	7 3 7 -0.54863
chimesFF: 	4 6 0 0.20858
chimesFF: 	6 4 0 0.20858
chimesFF: 	5 7 7 0.01124
chimesFF: 	7 5 7 0.01124
chimesFF: 	6 7 3 -0.36859
chimesFF: 	7 6 3 -0.36859
chimesFF: 	6 7 7 0.08211
chimesFF: 	7 6 7 0.08211
chimesFF: 	7 7 7 -0.53543
chimesFF: Read 3B parameters for triplet: 20 C H N
chimesFF: 	0 2 2 -2.99809
chimesFF: 	0 2 3 -2.92831
chimesFF: 	0 2 4 1.18764
chimesFF: 	0 4 1 -0.79095
chimesFF: 	0 5 1 -0.34688
chimesFF: 	0 5 3 1.86501
chimesFF: 	0 6 1 2.12092
chimesFF: 	0 6 3 -4.80946
chimesFF: 	0 6 5 0.47711
chimesFF: 	0 6 6 -0.10524
chimesFF: 	0 7 7 0.25497
chimesFF: 	1 0 2 -4.58791
chimesFF: 	1 6 5 -1.27219
chimesFF: 	1 7 0 -1.32907
chimesFF: 	1 7 6 -0.27237
chimesFF: 	3 0 6 -0.63196
chimesFF: 	3 5 0 0.93976
chimesFF: 	3 7 2 -0.24507
chimesFF: 	4 0 5 0.00819
chimesFF: 	4 2 5 -1.35531
chimesFF: 	4 5 3 -0.27386
chimesFF: 	4 6 4 0.87646
chimesFF: 	4 6 7 -0.98576
chimesFF: 	4 7 0 -0.90410
chimesFF: 	4 7 6 -0.22839
chimesFF: 	4 7 7 -0.98080
chimesFF: 	5 2 0 0.70324
chimesFF: 	5 3 3 6.45889
chimesFF: 	5 3 5 -1.59145
chimesFF: 	5 3 6 -0.25990
chimesFF: 	5 4 0 -1.17748
chimesFF: 	5 4 2 2.52501
chimesFF: 	5 4 3 1.99138
chimesFF: 	5 6 1 2.50206
chimesFF: 	5 6 4 -1.12208
chimesFF: 	5 6 7 0.39630
chimesFF: 	5 7 1 1.16857
chimesFF: 	5 7 6 0.61950
chimesFF: 	6 0 5 -0.65318
chimesFF: 	6 1 5 -0.67485
chimesFF: 	6 3 3 -1.81232
chimesFF: 	6 3 5 1.14753
chimesFF: 	6 4 7 -0.40839
chimesFF: 	6 5 7 -0.23298
chimesFF: 	6 6 0 -5.91470
chimesFF: 	6 6 1 -2.57749
chimesFF: 	6 6 6 -1.07719
chimesFF: 	6 7 0 0.29282
chimesFF: 	7 0 3 0.23640
chimesFF: 	7 0 6 -0.74056
chimesFF: 	7 3 4 -3.61148
chimesFF: 	7 4 6 0.61235
chimesFF: 	7 4 7 0.86137
chimesFF: 	7 5 2 -0.57085
chimesFF: 	7 6 3 -1.86789
chimesFF: 	7 6 5 1.14533
chimesFF: 	7 7 5 -0.34639
chimesFF: Read 3B parameters for triplet: 21 C H O
chimesFF: 	0 2 1 1.77963
chimesFF: 	0 2 5 1.04333
chimesFF: 	0 2 7 -3.85899
chimesFF: 	0 3 2 3.38425
chimesFF: 	0 3 6 -0.21697
chimesFF: 	0 4 2 2.15437
chimesFF: 	0 5 3 -0.09533
chimesFF: 	0 5 7 0.68458
chimesFF: 	0 6 2 -2.06816
chimesFF: 	0 6 5 1.26821
chimesFF: 	0 6 7 0.08435
chimesFF: 	0 7 5 1.24983
chimesFF: 	0 7 7 0.56862
chimesFF: 	1 3 7 -0.06086
chimesFF: 	1 6 0 -0.34332
chimesFF: 	1 6 2 0.71763
chimesFF: 	1 7 3 -0.72471
chimesFF: 	2 0 5 0.61008
chimesFF: 	2 0 6 -2.82752
chimesFF: 	2 2 7 1.69414
chimesFF: 	2 3 2 -1.10779
chimesFF: 	2 3 4 3.08759
chimesFF: 	2 5 0 0.08539
chimesFF: 	2 6 3 0.73393
chimesFF: 	2 7 3 2.59495
chimesFF: 	3 0 1 -0.25751
chimesFF: 	3 0 5 1.37372
chimesFF: 	3 0 7 -0.76647
chimesFF: 	3 2 5 -0.79151
chimesFF: 	3 2 7 6.00450
chimesFF: 	3 3 0 -0.88942
chimesFF: 	3 3 6 -0.10210
chimesFF: 	3 3 7 1.33988
chimesFF: 	3 4 0 -0.67129
chimesFF: 	3 4 2 4.83195
chimesFF: 	3 5 4 -1.31279
chimesFF: 	3 5 5 0.00433
chimesFF: 	3 6 4 1.66603
chimesFF: 	3 6 6 1.25020
chimesFF: 	3 7 0 0.13477
chimesFF: 	3 7 2 -2.53771
chimesFF: 	3 7 5 -0.45817
chimesFF: 	3 7 6 0.23364
chimesFF: 	3 7 7 0.22970
chimesFF: 	4 2 5 1.32247
chimesFF: 	4 3 1 -0.09393
chimesFF: 	4 3 5 1.52107
chimesFF: 	4 3 6 -0.72237
chimesFF: 	4 4 5 -0.21933
chimesFF: 	4 4 7 -0.73243
chimesFF: 	4 6 0 -0.67377
chimesFF: 	4 7 3 -0.02426
chimesFF: 	4 7 5 0.58098
chimesFF: 	5 2 4 -0.84876
chimesFF: 	5 2 5 1.96921
chimesFF: 	5 3 4 -1.19148
chimesFF: 	5 4 4 0.20074
chimesFF: 	5 4 7 0.23684
chimesFF: 	5 5 4 1.06700
chimesFF: 	5 6 3 0.32537
chimesFF: 	5 6 6 -0.42107
chimesFF: 	5 7 0 -0.07850
chimesFF: 	5 7 2 0.58185
chimesFF: 	6 0 4 1.14421
chimesFF: 	6 0 6 -0.04659
chimesFF: 	6 0 7 0.88041
chimesFF: 	6 2 7 -1.87462
chimesFF: 	6 3 5 -0.34028
chimesFF: 	6 3 6 0.04836
chimesFF: 	6 3 7 -0.75899
chimesFF: 	6 4 0 -0.02625
chimesFF: 	6 5 2 0.90043
chimesFF: 	6 5 5 0.97921
chimesFF: 	6 5 6 -0.45587
chimesFF: 	6 6 0 0.80026
chimesFF: 	6 6 3 -0.25918
chimesFF: 	6 6 5 0.29682
chimesFF: 	6 7 4 -0.63735
chimesFF: 	7 0 3 0.24634
chimesFF: 	7 0 5 0.14533
chimesFF: 	7 0 6 -1.63017
chimesFF: 	7 1 0 -1.21582
chimesFF: 	7 1 6 -2.48270
chimesFF: 	7 2 4 0.88414
chimesFF: 	7 2 6 0.34413
chimesFF: 	7 3 0 0.39089
chimesFF: 	7 3 4 0.22708
chimesFF: 	7 3 7 -0.19956
chimesFF: 	7 4 3 0.55896
chimesFF: 	7 4 6 -0.01180
chimesFF: 	7 5 4 -0.35903
chimesFF: 	7 6 0 -0.09843
chimesFF: 	7 6 6 0.30233
chimesFF: 	7 6 7 -0.72427
chimesFF: 	7 7 6 0.39133
chimesFF: Read 3B parameters for triplet: 22 C N N
chimesFF: 	0 2 3 -1.79864
chimesFF: 	2 0 3 -1.79864
chimesFF: 	0 2 6 3.52031
chimesFF: 	2 0 6 3.52031
chimesFF: 	0 2 7 2.55151
chimesFF: 	2 0 7 2.55151
chimesFF: 	0 5 4 -0.13454
chimesFF: 	5 0 4 -0.13454
chimesFF: 	0 5 6 2.46070
chimesFF: 	5 0 6 2.46070
chimesFF: 	0 7 3 1.25764
chimesFF: 	7 0 3 1.25764
chimesFF: 	1 6 3 -6.07828
chimesFF: 	6 1 3 -6.07828
chimesFF: 	2 4 5 -1.10806
chimesFF: 	4 2 5 -1.10806
chimesFF: 	3 5 0 -3.11366
chimesFF: 	5 3 0 -3.11366
chimesFF: 	3 6 0 -1.70093
chimesFF: 	6 3 0 -1.70093
chimesFF: 	3 6 3 2.33439
chimesFF: 	6 3 3 2.33439
chimesFF: 	3 7 7 0.88683
chimesFF: 	7 3 7 0.88683
chimesFF: 	4 6 0 -2.64023
chimesFF: 	6 4 0 -2.64023
chimesFF: 	5 6 5 -0.03488
chimesFF: 	6 5 5 -0.03488
chimesFF: 	5 6 6 -0.13907
chimesFF: 	6 5 6 -0.13907
chimesFF: 	5 7 0 1.11431
chimesFF: 	7 5 0 1.11431
chimesFF: 	6 6 0 -0.52204
chimesFF: 	6 6 6 -0.03177
chimesFF: 	6 7 0 0.78619
chimesFF: 	7 6 0 0.78619
chimesFF: 	7 7 7 0.09636
chimesFF: Read 3B parameters for triplet: 23 C N O
chimesFF: 	0 2 6 1.17256
chimesFF: 	0 7 5 0.04833
chimesFF: 	2 6 0 -0.61734
chimesFF: 	2 7 0 0.68569
chimesFF: 	2 7 5 -1.08946
chimesFF: 	3 5 7 -2.00945
chimesFF: 	3 6 7 1.16829
chimesFF: 	4 0 3 3.52845
chimesFF: 	4 2 0 -2.04468
chimesFF: 	4 2 5 0.42837
chimesFF: 	4 4 6 2.37777
chimesFF: 	4 6 0 2.03640
chimesFF: 	4 6 7 0.55665
chimesFF: 	5 6 0 1.76094
chimesFF: 	6 3 0 -1.54070
chimesFF: 	6 4 6 -1.55310
chimesFF: 	6 5 0 0.32479
chimesFF: 	6 5 2 -2.84207
chimesFF: 	6 5 5 -0.14528
chimesFF: 	6 7 6 -0.15126
chimesFF: 	6 7 7 0.57176
chimesFF: 	7 3 0 0.24519
chimesFF: 	7 6 5 0.99644
chimesFF: 	7 7 3 0.07300
chimesFF: 	7 7 7 -0.83203
chimesFF: Read 3B parameters for triplet: 24 C O O
chimesFF: 	0 1 4 0.98336
chimesFF: 	1 0 4 0.98336
chimesFF: 	0 2 3 8.10480
chimesFF: 	2 0 3 8.10480
chimesFF: 	0 2 5 -2.21369
chimesFF: 	2 0 5 -2.21369
chimesFF: 	0 2 6 4.53525
chimesFF: 	2 0 6 4.53525
chimesFF: 	0 3 3 10.70097
chimesFF: 	3 0 3 10.70097
chimesFF: 	0 3 5 -7.05220
chimesFF: 	3 0 5 -7.05220
chimesFF: 	0 3 7 1.25728
chimesFF: 	3 0 7 1.25728
chimesFF: 	0 4 5 -6.12200
chimesFF: 	4 0 5 -6.12200
chimesFF: 	0 4 7 0.17433
chimesFF: 	4 0 7 0.17433
chimesFF: 	0 6 6 0.11878
chimesFF: 	6 0 6 0.11878
chimesFF: 	0 6 7 -1.54676
chimesFF: 	6 0 7 -1.54676
chimesFF: 	0 7 3 0.04165
chimesFF: 	7 0 3 0.04165
chimesFF: 	0 7 5 -0.38255
chimesFF: 	7 0 5 -0.38255
chimesFF: 	0 7 6 0.57066
chimesFF: 	7 0 6 0.57066
chimesFF: 	1 2 4 -0.01566
chimesFF: 	2 1 4 -0.01566
chimesFF: 	1 2 6 1.23974
chimesFF: 	2 1 6 1.23974
chimesFF: 	1 3 6 1.46972
chimesFF: 	3 1 6 1.46972
chimesFF: 	1 3 7 0.70266
chimesFF: 	3 1 7 0.70266
chimesFF: 	1 4 3 -9.94733
chimesFF: 	4 1 3 -9.94733
chimesFF: 	1 4 6 -0.19074
chimesFF: 	4 1 6 -0.19074
chimesFF: 	2 4 5 1.65985
chimesFF: 	4 2 5 1.65985
chimesFF: 	2 5 4 0.02637
chimesFF: 	5 2 4 0.02637
chimesFF: 	2 6 0 -0.38146
chimesFF: 	6 2 0 -0.38146
chimesFF: 	3 3 7 -1.31297
chimesFF: 	3 4 6 1.90815
chimesFF: 	4 3 6 1.90815
chimesFF: 	3 4 7 -1.03619
chimesFF: 	4 3 7 -1.03619
chimesFF: 	3 5 4 -1.20105
chimesFF: 	5 3 4 -1.20105
chimesFF: 	3 5 6 3.71352
chimesFF: 	5 3 6 3.71352
chimesFF: 	3 6 0 0.78320
chimesFF: 	6 3 0 0.78320
chimesFF: 	3 6 3 1.27108
chimesFF: 	6 3 3 1.27108
chimesFF: 	3 6 7 3.37058
chimesFF: 	6 3 7 3.37058
chimesFF: 	3 7 0 -0.42457
chimesFF: 	7 3 0 -0.42457
chimesFF: 	3 7 6 -0.39201
chimesFF: 	7 3 6 -0.39201
chimesFF: 	3 7 7 0.51484
chimesFF: 	7 3 7 0.51484
chimesFF: 	4 6 4 0.95701
chimesFF: 	6 4 4 0.95701
chimesFF: 	4 6 6 -2.50935
chimesFF: 	6 4 6 -2.50935
chimesFF: 	4 6 7 0.64949
chimesFF: 	6 4 7 0.64949
chimesFF: 	5 6 0 -0.45317
chimesFF: 	6 5 0 -0.45317
chimesFF: 	5 6 2 0.77891
chimesFF: 	6 5 2 0.77891
chimesFF: 	5 7 4 0.14689
chimesFF: 	7 5 4 0.14689
chimesFF: 	5 7 6 -0.13925
chimesFF: 	7 5 6 -0.13925
chimesFF: 	5 7 7 -2.58962
chimesFF: 	7 5 7 -2.58962
chimesFF: 	6 6 0 0.26952
chimesFF: 	6 6 7 -0.85779
chimesFF: 	6 7 0 0.59231
chimesFF: 	7 6 0 0.59231
chimesFF: 	6 7 3 0.77217
chimesFF: 	7 6 3 0.77217
chimesFF: 	6 7 5 -0.59791
chimesFF: 	7 6 5 -0.59791
chimesFF: 	6 7 6 0.80935
chimesFF: 	7 6 6 0.80935
chimesFF: 	7 7 0 0.23144
chimesFF: 	7 7 5 -0.16272
chimesFF: 	7 7 6 0.42957
chimesFF: Read 3B parameters for triplet: 25 H H H
chimesFF: 	0 1 1 0.60640
chimesFF: 	1 0 1 0.60640
chimesFF: 	1 1 0 0.60640
chimesFF: 	0 1 2 -0.05699
chimesFF: 	1 0 2 -0.05699
chimesFF: 	0 2 1 -0.05699
chimesFF: 	2 0 1 -0.05699
chimesFF: 	1 2 0 -0.05699
chimesFF: 	2 1 0 -0.05699
chimesFF: 	0 1 3 -1.38187
chimesFF: 	1 0 3 -1.38187
chimesFF: 	0 3 1 -1.38187
chimesFF: 	3 0 1 -1.38187
chimesFF: 	1 3 0 -1.38187
chimesFF: 	3 1 0 -1.38187
chimesFF: 	0 1 5 0.56353
chimesFF: 	1 0 5 0.56353
chimesFF: 	0 5 1 0.56353
chimesFF: 	5 0 1 0.56353
chimesFF: 	1 5 0 0.56353
chimesFF: 	5 1 0 0.56353
chimesFF: 	0 1 6 -0.01344
chimesFF: 	1 0 6 -0.01344
chimesFF: 	0 6 1 -0.01344
chimesFF: 	6 0 1 -0.01344
chimesFF: 	1 6 0 -0.01344
chimesFF: 	6 1 0 -0.01344
chimesFF: 	0 1 7 -0.20413
chimesFF: 	1 0 7 -0.20413
chimesFF: 	0 7 1 -0.20413
chimesFF: 	7 0 1 -0.20413
chimesFF: 	1 7 0 -0.20413
chimesFF: 	7 1 0 -0.20413
chimesFF: 	0 2 3 -0.15802
chimesFF: 	2 0 3 -0.15802
chimesFF: 	0 3 2 -0.15802
chimesFF: 	3 0 2 -0.15802
chimesFF: 	2 3 0 -0.15802
chimesFF: 	3 2 0 -0.15802
chimesFF: 	0 3 3 0.62361
chimesFF: 	3 0 3 0.62361
chimesFF: 	3 3 0 0.62361
chimesFF: 	0 3 4 -0.09051
chimesFF: 	3 0 4 -0.09051
chimesFF: 	0 4 3 -0.09051
chimesFF: 	4 0 3 -0.09051
chimesFF: 	3 4 0 -0.09051
chimesFF: 	4 3 0 -0.09051
chimesFF: 	0 3 6 1.17143
chimesFF: 	3 0 6 1.17143
chimesFF: 	0 6 3 1.17143
chimesFF: 	6 0 3 1.17143
chimesFF: 	3 6 0 1.17143
chimesFF: 	6 3 0 1.17143
chimesFF: 	0 3 7 0.28161
chimesFF: 	3 0 7 0.28161
chimesFF: 	0 7 3 0.28161
chimesFF: 	7 0 3 0.28161
chimesFF: 	3 7 0 0.28161
chimesFF: 	7 3 0 0.28161
chimesFF: 	0 4 7 -0.21382
chimesFF: 	4 0 7 -0.21382
chimesFF: 	0 7 4 -0.21382
chimesFF: 	7 0 4 -0.21382
chimesFF: 	4 7 0 -0.21382
chimesFF: 	7 4 0 -0.21382
chimesFF: 	0 5 6 -0.44000
chimesFF: 	5 0 6 -0.44000
chimesFF: 	0 6 5 -0.44000
chimesFF: 	6 0 5 -0.44000
chimesFF: 	5 6 0 -0.44000
chimesFF: 	6 5 0 -0.44000
chimesFF: 	0 7 7 -0.20285
chimesFF: 	7 0 7 -0.20285
chimesFF: 	7 7 0 -0.20285
chimesFF: 	2 3 7 -0.01581
chimesFF: 	3 2 7 -0.01581
chimesFF: 	2 7 3 -0.01581
chimesFF: 	7 2 3 -0.01581
chimesFF: 	3 7 2 -0.01581
chimesFF: 	7 3 2 -0.01581
chimesFF: 	2 4 7 0.14674
chimesFF: 	4 2 7 0.14674
chimesFF: 	2 7 4 0.14674
chimesFF: 	7 2 4 0.14674
chimesFF: 	4 7 2 0.14674
chimesFF: 	7 4 2 0.14674
chimesFF: 	3 4 7 -0.17956
chimesFF: 	4 3 7 -0.17956
chimesFF: 	3 7 4 -0.17956
chimesFF: 	7 3 4 -0.17956
chimesFF: 	4 7 3 -0.17956
chimesFF: 	7 4 3 -0.17956
chimesFF: 	3 5 6 -0.35148
chimesFF: 	5 3 6 -0.35148
chimesFF: 	3 6 5 -0.35148
chimesFF: 	6 3 5 -0.35148
chimesFF: 	5 6 3 -0.35148
chimesFF: 	6 5 3 -0.35148
chimesFF: 	5 6 6 -0.14149
chimesFF: 	6 5 6 -0.14149
chimesFF: 	6 6 5 -0.14149
chimesFF: 	6 7 7 -0.07087
chimesFF: 	7 6 7 -0.07087
chimesFF: 	7 7 6 -0.07087
chimesFF: Read 3B parameters for triplet: 26 H H N
chimesFF: 	0 1 2 -0.37638
chimesFF: 	0 2 1 -0.37638
chimesFF: 	0 1 5 -0.34593
chimesFF: 	0 5 1 -0.34593
chimesFF: 	0 2 4 -0.83875
chimesFF: 	0 4 2 -0.83875
chimesFF: 	0 3 6 -0.05571
chimesFF: 	0 6 3 -0.05571
chimesFF: 	0 5 6 0.18186
chimesFF: 	0 6 5 0.18186
chimesFF: 	0 5 7 0.06814
chimesFF: 	0 7 5 0.06814
chimesFF: 	1 0 1 0.38296
chimesFF: 	1 1 0 0.38296
chimesFF: 	1 0 7 0.03528
chimesFF: 	1 7 0 0.03528
chimesFF: 	4 6 7 -0.67759
chimesFF: 	4 7 6 -0.67759
chimesFF: 	5 0 3 0.40820
chimesFF: 	5 3 0 0.40820
chimesFF: 	5 0 7 -0.16217
chimesFF: 	5 7 0 -0.16217
chimesFF: 	5 3 4 0.51260
chimesFF: 	5 4 3 0.51260
chimesFF: 	5 5 6 0.40376
chimesFF: 	5 6 5 0.40376
chimesFF: 	5 7 7 -0.43908
chimesFF: 	6 3 6 0.28848
chimesFF: 	6 6 3 0.28848
chimesFF: 	7 0 5 0.27832
chimesFF: 	7 5 0 0.27832
chimesFF: 	7 0 6 -0.25033
chimesFF: 	7 6 0 -0.25033
chimesFF: 	7 2 6 0.40393
chimesFF: 	7 6 2 0.40393
chimesFF: 	7 3 7 0.03550
chimesFF: 	7 7 3 0.03550
chimesFF: Read 3B parameters for triplet: 27 H H O
chimesFF: 	0 1 2 -2.25388
chimesFF: 	0 2 1 -2.25388
chimesFF: 	0 1 5 0.88446
chimesFF: 	0 5 1 0.88446
chimesFF: 	0 1 6 -0.09905
chimesFF: 	0 6 1 -0.09905
chimesFF: 	0 1 7 0.95507
chimesFF: 	0 7 1 0.95507
chimesFF: 	0 2 3 0.81870
chimesFF: 	0 3 2 0.81870
chimesFF: 	0 2 5 -0.35902
chimesFF: 	0 5 2 -0.35902
chimesFF: 	0 2 6 -0.40056
chimesFF: 	0 6 2 -0.40056
chimesFF: 	0 4 5 0.28200
chimesFF: 	0 5 4 0.28200
chimesFF: 	0 4 6 -0.17112
chimesFF: 	0 6 4 -0.17112
chimesFF: 	0 5 5 -0.00998
chimesFF: 	0 6 6 0.02825
chimesFF: 	0 6 7 0.08542
chimesFF: 	0 7 6 0.08542
chimesFF: 	1 0 2 2.71851
chimesFF: 	1 2 0 2.71851
chimesFF: 	1 0 3 1.34098
chimesFF: 	1 3 0 1.34098
chimesFF: 	1 0 5 -1.02522
chimesFF: 	1 5 0 -1.02522
chimesFF: 	1 1 4 -0.79203
chimesFF: 	1 4 1 -0.79203
chimesFF: 	1 3 6 -0.23330
chimesFF: 	1 6 3 -0.23330
chimesFF: 	1 5 7 -0.14536
chimesFF: 	1 7 5 -0.14536
chimesFF: 	1 6 7 -0.00053
chimesFF: 	1 7 6 -0.00053
chimesFF: 	2 0 6 -0.80470
chimesFF: 	2 6 0 -0.80470
chimesFF: 	2 2 4 -1.78644
chimesFF: 	2 4 2 -1.78644
chimesFF: 	2 3 4 -0.32082
chimesFF: 	2 4 3 -0.32082
chimesFF: 	2 4 5 1.10157
chimesFF: 	2 5 4 1.10157
chimesFF: 	2 4 6 -0.33315
chimesFF: 	2 6 4 -0.33315
chimesFF: 	2 4 7 -0.91862
chimesFF: 	2 7 4 -0.91862
chimesFF: 	2 5 6 -0.23693
chimesFF: 	2 6 5 -0.23693
chimesFF: 	2 5 7 0.08934
chimesFF: 	2 7 5 0.08934
chimesFF: 	3 0 1 -0.23785
chimesFF: 	3 1 0 -0.23785
chimesFF: 	3 0 3 -0.04870
chimesFF: 	3 3 0 -0.04870
chimesFF: 	3 1 7 -0.47742
chimesFF: 	3 7 1 -0.47742
chimesFF: 	3 2 6 -0.52891
chimesFF: 	3 6 2 -0.52891
chimesFF: 	3 3 4 0.94035
chimesFF: 	3 4 3 0.94035
chimesFF: 	3 3 5 -1.31467
chimesFF: 	3 5 3 -1.31467
chimesFF: 	3 3 7 0.27734
chimesFF: 	3 7 3 0.27734
chimesFF: 	3 4 6 0.26449
chimesFF: 	3 6 4 0.26449
chimesFF: 	3 7 7 0.04784
chimesFF: 	4 0 5 -1.31742
chimesFF: 	4 5 0 -1.31742
chimesFF: 	4 1 2 0.92878
chimesFF: 	4 2 1 0.92878
chimesFF: 	4 3 5 1.28014
chimesFF: 	4 5 3 1.28014
chimesFF: 	4 3 7 -0.31014
chimesFF: 	4 7 3 -0.31014
chimesFF: 	4 6 6 -0.66546
chimesFF: 	5 0 1 0.27941
chimesFF: 	5 1 0 0.27941
chimesFF: 	5 0 4 -0.06440
chimesFF: 	5 4 0 -0.06440
chimesFF: 	5 0 6 0.73674
chimesFF: 	5 6 0 0.73674
chimesFF: 	5 1 3 -1.14048
chimesFF: 	5 3 1 -1.14048
chimesFF: 	5 1 5 0.40533
chimesFF: 	5 5 1 0.40533
chimesFF: 	5 2 4 2.02921
chimesFF: 	5 4 2 2.02921
chimesFF: 	5 2 5 -0.20324
chimesFF: 	5 5 2 -0.20324
chimesFF: 	5 3 3 1.21942
chimesFF: 	5 3 6 -0.23665
chimesFF: 	5 6 3 -0.23665
chimesFF: 	5 5 6 0.97016
chimesFF: 	5 6 5 0.97016
chimesFF: 	6 0 3 1.45275
chimesFF: 	6 3 0 1.45275
chimesFF: 	6 0 5 -0.59665
chimesFF: 	6 5 0 -0.59665
chimesFF: 	6 1 2 1.45022
chimesFF: 	6 2 1 1.45022
chimesFF: 	6 1 3 1.68137
chimesFF: 	6 3 1 1.68137
chimesFF: 	6 2 3 -0.43700
chimesFF: 	6 3 2 -0.43700
chimesFF: 	6 2 6 0.54848
chimesFF: 	6 6 2 0.54848
chimesFF: 	6 3 5 2.29781
chimesFF: 	6 5 3 2.29781
chimesFF: 	6 3 6 1.23353
chimesFF: 	6 6 3 1.23353
chimesFF: 	6 4 6 -1.03042
chimesFF: 	6 6 4 -1.03042
chimesFF: 	6 4 7 -0.85836
chimesFF: 	6 7 4 -0.85836
chimesFF: 	6 5 6 -0.22407
chimesFF: 	6 6 5 -0.22407
chimesFF: 	6 7 7 0.17334
chimesFF: 	7 0 2 -1.96347
chimesFF: 	7 2 0 -1.96347
chimesFF: 	7 0 4 0.11215
chimesFF: 	7 4 0 0.11215
chimesFF: 	7 0 5 0.39434
chimesFF: 	7 5 0 0.39434
chimesFF: 	7 0 6 -0.10449
chimesFF: 	7 6 0 -0.10449
chimesFF: 	7 1 2 -0.18717
chimesFF: 	7 2 1 -0.18717
chimesFF: 	7 1 7 -0.96194
chimesFF: 	7 7 1 -0.96194
chimesFF: 	7 2 3 1.82300
chimesFF: 	7 3 2 1.82300
chimesFF: 	7 2 4 -0.48978
chimesFF: 	7 4 2 -0.48978
chimesFF: 	7 2 5 -0.66458
chimesFF: 	7 5 2 -0.66458
chimesFF: 	7 2 7 0.18747
chimesFF: 	7 7 2 0.18747
chimesFF: 	7 3 4 -0.42755
chimesFF: 	7 4 3 -0.42755
chimesFF: 	7 3 6 1.41906
chimesFF: 	7 6 3 1.41906
chimesFF: 	7 4 5 0.29459
chimesFF: 	7 5 4 0.29459
chimesFF: 	7 4 7 -0.26070
chimesFF: 	7 7 4 -0.26070
chimesFF: 	7 5 5 0.73714
chimesFF: 	7 5 7 -0.20973
chimesFF: 	7 7 5 -0.20973
chimesFF: 	7 6 6 -0.04328
chimesFF: 	7 7 7 0.28182
chimesFF: Read 3B parameters for triplet: 28 H N N
chimesFF: 	0 2 5 0.30787
chimesFF: 	2 0 5 0.30787
chimesFF: 	0 4 7 -0.22462
chimesFF: 	4 0 7 -0.22462
chimesFF: 	0 5 4 -0.31758
chimesFF: 	5 0 4 -0.31758
chimesFF: 	0 5 7 0.79526
chimesFF: 	5 0 7 0.79526
chimesFF: 	0 6 3 0.10332
chimesFF: 	6 0 3 0.10332
chimesFF: 	0 7 7 -1.44698
chimesFF: 	7 0 7 -1.44698
chimesFF: 	2 4 0 -4.54318
chimesFF: 	4 2 0 -4.54318
chimesFF: 	2 4 2 6.01563
chimesFF: 	4 2 2 6.01563
chimesFF: 	2 4 3 8.27503
chimesFF: 	4 2 3 8.27503
chimesFF: 	2 4 5 -2.66364
chimesFF: 	4 2 5 -2.66364
chimesFF: 	2 6 0 0.16671
chimesFF: 	6 2 0 0.16671
chimesFF: 	2 6 3 -2.10313
chimesFF: 	6 2 3 -2.10313
chimesFF: 	2 6 5 0.47774
chimesFF: 	6 2 5 0.47774
chimesFF: 	2 6 6 1.57880
chimesFF: 	6 2 6 1.57880
chimesFF: 	2 7 0 -1.19898
chimesFF: 	7 2 0 -1.19898
chimesFF: 	3 4 3 1.80210
chimesFF: 	4 3 3 1.80210
chimesFF: 	3 4 5 -0.69957
chimesFF: 	4 3 5 -0.69957
chimesFF: 	3 5 0 -1.16987
chimesFF: 	5 3 0 -1.16987
chimesFF: 	3 5 3 3.30623
chimesFF: 	5 3 3 3.30623
chimesFF: 	3 5 6 -1.72733
chimesFF: 	5 3 6 -1.72733
chimesFF: 	3 5 7 -0.22585
chimesFF: 	5 3 7 -0.22585
chimesFF: 	3 6 4 -0.41403
chimesFF: 	6 3 4 -0.41403
chimesFF: 	3 6 6 0.93069
chimesFF: 	6 3 6 0.93069
chimesFF: 	3 7 0 -1.90656
chimesFF: 	7 3 0 -1.90656
chimesFF: 	3 7 3 5.64695
chimesFF: 	7 3 3 5.64695
chimesFF: 	3 7 5 -0.58458
chimesFF: 	7 3 5 -0.58458
chimesFF: 	3 7 7 4.07784
chimesFF: 	7 3 7 4.07784
chimesFF: 	4 5 3 0.23276
chimesFF: 	5 4 3 0.23276
chimesFF: 	4 6 4 1.05190
chimesFF: 	6 4 4 1.05190
chimesFF: 	5 5 0 2.44041
chimesFF: 	5 5 3 -1.17601
chimesFF: 	5 5 7 1.13719
chimesFF: 	5 7 0 1.06769
chimesFF: 	7 5 0 1.06769
chimesFF: 	6 6 3 0.60320
chimesFF: 	6 6 5 -0.15914
chimesFF: 	6 7 7 -0.93130
chimesFF: 	7 6 7 -0.93130
chimesFF: 	7 7 3 0.62884
chimesFF: 	7 7 5 -0.35709
chimesFF: 	7 7 6 -0.05024
chimesFF: Read 3B parameters for triplet: 29 H N O
chimesFF: 	0 2 5 1.19001
chimesFF: 	0 2 7 -3.96098
chimesFF: 	0 3 3 -0.86072
chimesFF: 	0 3 6 -0.20049
chimesFF: 	0 4 6 0.89312
chimesFF: 	0 6 4 -0.15872
chimesFF: 	0 6 5 0.32334
chimesFF: 	0 7 5 -0.30185
chimesFF: 	0 7 7 0.89252
chimesFF: 	1 0 2 3.46551
chimesFF: 	1 0 3 -3.91961
chimesFF: 	2 1 0 -1.47680
chimesFF: 	2 3 3 1.37055
chimesFF: 	2 4 7 -0.31840
chimesFF: 	2 6 0 -1.39789
chimesFF: 	2 6 6 -0.16562
chimesFF: 	3 4 0 -0.50472
chimesFF: 	3 5 3 0.03529
chimesFF: 	4 0 2 0.64973
chimesFF: 	4 4 6 -0.38285
chimesFF: 	5 0 4 1.67753
chimesFF: 	5 4 0 0.30338
chimesFF: 	5 4 6 0.74545
chimesFF: 	6 0 6 0.43928
chimesFF: 	6 7 6 -0.01468
chimesFF: 	7 6 0 0.55429
chimesFF: 	7 6 3 0.00485
chimesFF: 	7 6 5 -0.55160
chimesFF: Read 3B parameters for triplet: 30 H O O
chimesFF: 	0 2 1 -12.05605
chimesFF: 	2 0 1 -12.05605
chimesFF: 	0 2 4 -4.25250
chimesFF: 	2 0 4 -4.25250
chimesFF: 	0 2 5 2.46371
chimesFF: 	2 0 5 2.46371
chimesFF: 	0 2 6 1.25615
chimesFF: 	2 0 6 1.25615
chimesFF: 	0 2 7 -1.82833
chimesFF: 	2 0 7 -1.82833
chimesFF: 	0 3 6 0.22493
chimesFF: 	3 0 6 0.22493
chimesFF: 	0 3 7 -0.56931
chimesFF: 	3 0 7 -0.56931
chimesFF: 	0 4 4 0.85047
chimesFF: 	4 0 4 0.85047
chimesFF: 	0 4 5 0.31200
chimesFF: 	4 0 5 0.31200
chimesFF: 	0 5 2 -2.16032
chimesFF: 	5 0 2 -2.16032
chimesFF: 	0 5 3 0.11725
chimesFF: 	5 0 3 0.11725
chimesFF: 	0 5 5 -0.15965
chimesFF: 	5 0 5 -0.15965
chimesFF: 	0 6 2 0.79314
chimesFF: 	6 0 2 0.79314
chimesFF: 	0 6 4 -0.23966
chimesFF: 	6 0 4 -0.23966
chimesFF: 	0 7 3 -0.71312
chimesFF: 	7 0 3 -0.71312
chimesFF: 	0 7 5 -0.67674
chimesFF: 	7 0 5 -0.67674
chimesFF: 	1 1 6 -1.23440
chimesFF: 	1 2 4 -4.56662
chimesFF: 	2 1 4 -4.56662
chimesFF: 	1 3 3 -2.44436
chimesFF: 	3 1 3 -2.44436
chimesFF: 	1 4 6 -2.57582
chimesFF: 	4 1 6 -2.57582
chimesFF: 	1 5 3 1.60262
chimesFF: 	5 1 3 1.60262
chimesFF: 	1 7 6 0.34130
chimesFF: 	7 1 6 0.34130
chimesFF: 	1 7 7 -0.90903
chimesFF: 	7 1 7 -0.90903
chimesFF: 	2 2 5 -2.97934
chimesFF: 	2 3 2 -1.51165
chimesFF: 	3 2 2 -1.51165
chimesFF: 	2 3 7 1.08586
chimesFF: 	3 2 7 1.08586
chimesFF: 	2 4 4 -3.21391
chimesFF: 	4 2 4 -3.21391
chimesFF: 	2 4 5 0.19248
chimesFF: 	4 2 5 0.19248
chimesFF: 	2 4 7 -0.13229
chimesFF: 	4 2 7 -0.13229
chimesFF: 	2 5 0 -0.02068
chimesFF: 	5 2 0 -0.02068
chimesFF: 	2 5 3 -0.50489
chimesFF: 	5 2 3 -0.50489
chimesFF: 	2 5 6 0.81922
chimesFF: 	5 2 6 0.81922
chimesFF: 	2 5 7 -0.83343
chimesFF: 	5 2 7 -0.83343
chimesFF: 	2 6 5 0.51878
chimesFF: 	6 2 5 0.51878
chimesFF: 	2 6 7 0.35574
chimesFF: 	6 2 7 0.35574
chimesFF: 	2 7 3 1.60526
chimesFF: 	7 2 3 1.60526
chimesFF: 	2 7 6 -0.28975
chimesFF: 	7 2 6 -0.28975
chimesFF: 	3 4 0 -2.03232
chimesFF: 	4 3 0 -2.03232
chimesFF: 	3 4 6 0.56611
chimesFF: 	4 3 6 0.56611
chimesFF: 	3 4 7 0.28331
chimesFF: 	4 3 7 0.28331
chimesFF: 	3 5 7 -0.59294
chimesFF: 	5 3 7 -0.59294
chimesFF: 	3 6 0 2.63008
chimesFF: 	6 3 0 2.63008
chimesFF: 	3 6 4 0.64256
chimesFF: 	6 3 4 0.64256
chimesFF: 	3 6 6 -0.52590
chimesFF: 	6 3 6 -0.52590
chimesFF: 	3 7 1 -1.40668
chimesFF: 	7 3 1 -1.40668
chimesFF: 	3 7 4 -0.12476
chimesFF: 	7 3 4 -0.12476
chimesFF: 	3 7 5 0.37559
chimesFF: 	7 3 5 0.37559
chimesFF: 	4 4 3 -0.80791
chimesFF: 	4 5 1 -3.25808
chimesFF: 	5 4 1 -3.25808
chimesFF: 	4 5 3 0.87059
chimesFF: 	5 4 3 0.87059
chimesFF: 	4 5 4 1.26297
chimesFF: 	5 4 4 1.26297
chimesFF: 	4 5 5 0.07554
chimesFF: 	5 4 5 0.07554
chimesFF: 	4 5 6 -0.78794
chimesFF: 	5 4 6 -0.78794
chimesFF: 	4 6 3 0.68800
chimesFF: 	6 4 3 0.68800
chimesFF: 	4 6 5 -0.31042
chimesFF: 	6 4 5 -0.31042
chimesFF: 	4 7 1 0.14675
chimesFF: 	7 4 1 0.14675
chimesFF: 	4 7 2 -0.47719
chimesFF: 	7 4 2 -0.47719
chimesFF: 	4 7 3 -0.30954
chimesFF: 	7 4 3 -0.30954
chimesFF: 	4 7 4 0.33833
chimesFF: 	7 4 4 0.33833
chimesFF: 	4 7 6 0.65061
chimesFF: 	7 4 6 0.65061
chimesFF: 	4 7 7 0.15690
chimesFF: 	7 4 7 0.15690
chimesFF: 	5 5 0 0.94628
chimesFF: 	5 6 0 -0.67964
chimesFF: 	6 5 0 -0.67964
chimesFF: 	5 6 6 0.90303
chimesFF: 	6 5 6 0.90303
chimesFF: 	5 7 0 -0.18233
chimesFF: 	7 5 0 -0.18233
chimesFF: 	5 7 2 0.87334
chimesFF: 	7 5 2 0.87334
chimesFF: 	5 7 3 -0.68090
chimesFF: 	7 5 3 -0.68090
chimesFF: 	5 7 6 0.87613
chimesFF: 	7 5 6 0.87613
chimesFF: 	5 7 7 -0.21020
chimesFF: 	7 5 7 -0.21020
chimesFF: 	6 6 2 0.12902
chimesFF: 	6 6 6 -0.58925
chimesFF: 	6 6 7 -0.29780
chimesFF: 	6 7 1 -0.75209
chimesFF: 	7 6 1 -0.75209
chimesFF: 	6 7 5 0.76504
chimesFF: 	7 6 5 0.76504
chimesFF: 	7 7 0 0.06639
chimesFF: 	7 7 3 0.19768
chimesFF: 	7 7 5 0.08133
chimesFF: 	7 7 6 -1.00825
chimesFF: 	7 7 7 -0.80778
chimesFF: Read 3B parameters for triplet: 31 N N N
chimesFF: 	1 3 7 0.23687
chimesFF: 	3 1 7 0.23687
chimesFF: 	1 7 3 0.23687
chimesFF: 	7 1 3 0.23687
chimesFF: 	3 7 1 0.23687
chimesFF: 	7 3 1 0.23687
chimesFF: Read 3B parameters for triplet: 32 N N O
chimesFF: 	7 5 7 -0.66233
chimesFF: 	7 7 5 -0.66233
chimesFF: Read 3B parameters for triplet: 33 N O O
chimesFF: Read 3B parameters for triplet: 34 O O O
chimesFF: 	0 1 2 1.95232
chimesFF: 	1 0 2 1.95232
chimesFF: 	0 2 1 1.95232
chimesFF: 	2 0 1 1.95232
chimesFF: 	1 2 0 1.95232
chimesFF: 	2 1 0 1.95232
chimesFF: 	0 2 3 -2.12255
chimesFF: 	2 0 3 -2.12255
chimesFF: 	0 3 2 -2.12255
chimesFF: 	3 0 2 -2.12255
chimesFF: 	2 3 0 -2.12255
chimesFF: 	3 2 0 -2.12255
chimesFF: 	0 3 6 -0.33646
chimesFF: 	3 0 6 -0.33646
chimesFF: 	0 6 3 -0.33646
chimesFF: 	6 0 3 -0.33646
chimesFF: 	3 6 0 -0.33646
chimesFF: 	6 3 0 -0.33646
chimesFF: 	0 3 7 0.45948
chimesFF: 	3 0 7 0.45948
chimesFF: 	0 7 3 0.45948
chimesFF: 	7 0 3 0.45948
chimesFF: 	3 7 0 0.45948
chimesFF: 	7 3 0 0.45948
chimesFF: 	0 5 6 0.57580
chimesFF: 	5 0 6 0.57580
chimesFF: 	0 6 5 0.57580
chimesFF: 	6 0 5 0.57580
chimesFF: 	5 6 0 0.57580
chimesFF: 	6 5 0 0.57580
chimesFF: 	2 5 7 0.19370
chimesFF: 	5 2 7 0.19370
chimesFF: 	2 7 5 0.19370
chimesFF: 	7 2 5 0.19370
chimesFF: 	5 7 2 0.19370
chimesFF: 	7 5 2 0.19370
chimesFF: 	4 5 7 -0.64106
chimesFF: 	5 4 7 -0.64106
chimesFF: 	4 7 5 -0.64106
chimesFF: 	7 4 5 -0.64106
chimesFF: 	5 7 4 -0.64106
chimesFF: 	7 5 4 -0.64106
chimesFF: Built the following 3-body pair "slow" map:
chimesFF: 	0 AlAlAlAlAlAl
chimesFF: 	1 AlAlAlCAlC
chimesFF: 	2 AlAlAlHAlH
chimesFF: 	3 AlAlAlNAlN
chimesFF: 	4 AlAlAlOAlO
chimesFF: 	1 AlCAlAlAlC
chimesFF: 	1 AlCAlCAlAl
chimesFF: 	5 AlCAlCCC
chimesFF: 	6 AlCAlHCH
chimesFF: 	7 AlCAlNCN
chimesFF: 	8 AlCAlOCO
chimesFF: 	5 AlCCCAlC
chimesFF: 	6 AlCCHAlH
chimesFF: 	7 AlCCNAlN
chimesFF: 	8 AlCCOAlO
chimesFF: 	2 AlHAlAlAlH
chimesFF: 	6 AlHAlCCH
chimesFF: 	2 AlHAlHAlAl
chimesFF: 	9 AlHAlHHH
chimesFF: 	10 AlHAlNHN
chimesFF: 	11 AlHAlOHO
chimesFF: 	6 AlHCHAlC
chimesFF: 	9 AlHHHAlH
chimesFF: 	10 AlHHNAlN
chimesFF: 	11 AlHHOAlO
chimesFF: 	3 AlNAlAlAlN
chimesFF: 	7 AlNAlCCN
chimesFF: 	10 AlNAlHHN
chimesFF: 	3 AlNAlNAlAl
chimesFF: 	12 AlNAlNNN
chimesFF: 	13 AlNAlONO
chimesFF: 	7 AlNCNAlC
chimesFF: 	10 AlNHNAlH
chimesFF: 	12 AlNNNAlN
chimesFF: 	13 AlNNOAlO
chimesFF: 	4 AlOAlAlAlO
chimesFF: 	8 AlOAlCCO
chimesFF: 	11 AlOAlHHO
chimesFF: 	13 AlOAlNNO
chimesFF: 	4 AlOAlOAlAl
chimesFF: 	14 AlOAlOOO
chimesFF: 	8 AlOCOAlC
chimesFF: 	11 AlOHOAlH
chimesFF: 	13 AlONOAlN
chimesFF: 	14 AlOOOAlO
chimesFF: 	5 CCAlCAlC
chimesFF: 	15 CCCCCC
chimesFF: 	16 CCCHCH
chimesFF: 	17 CCCNCN
chimesFF: 	18 CCCOCO
chimesFF: 	6 CHAlCAlH
chimesFF: 	6 CHAlHAlC
chimesFF: 	16 CHCCCH
chimesFF: 	16 CHCHCC
chimesFF: 	19 CHCHHH
chimesFF: 	20 CHCNHN
chimesFF: 	21 CHCOHO
chimesFF: 	19 CHHHCH
chimesFF: 	20 CHHNCN
chimesFF: 	21 CHHOCO
chimesFF: 	7 CNAlCAlN
chimesFF: 	7 CNAlNAlC
chimesFF: 	17 CNCCCN
chimesFF: 	20 CNCHHN
chimesFF: 	17 CNCNCC
chimesFF: 	22 CNCNNN
chimesFF: 	23 CNCONO
chimesFF: 	20 CNHNCH
chimesFF: 	22 CNNNCN
chimesFF: 	23 CNNOCO
chimesFF: 	8 COAlCAlO
chimesFF: 	8 COAlOAlC
chimesFF: 	18 COCCCO
chimesFF: 	21 COCHHO
chimesFF: 	23 COCNNO
chimesFF: 	18 COCOCC
chimesFF: 	24 COCOOO
chimesFF: 	21 COHOCH
chimesFF: 	23 CONOCN
chimesFF: 	24 COOOCO
chimesFF: 	9 HHAlHAlH
chimesFF: 	19 HHCHCH
chimesFF: 	25 HHHHHH
chimesFF: 	26 HHHNHN
chimesFF: 	27 HHHOHO
chimesFF: 	10 HNAlHAlN
chimesFF: 	10 HNAlNAlH
chimesFF: 	20 HNCHCN
chimesFF: 	20 HNCNCH
chimesFF: 	26 HNHHHN
chimesFF: 	26 HNHNHH
chimesFF: 	28 HNHNNN
chimesFF: 	29 HNHONO
chimesFF: 	28 HNNNHN
chimesFF: 	29 HNNOHO
chimesFF: 	11 HOAlHAlO
chimesFF: 	11 HOAlOAlH
chimesFF: 	21 HOCHCO
chimesFF: 	21 HOCOCH
chimesFF: 	27 HOHHHO
chimesFF: 	29 HOHNNO
chimesFF: 	27 HOHOHH
chimesFF: 	30 HOHOOO
chimesFF: 	29 HONOHN
chimesFF: 	30 HOOOHO
chimesFF: 	12 NNAlNAlN
chimesFF: 	22 NNCNCN
chimesFF: 	28 NNHNHN
chimesFF: 	31 NNNNNN
chimesFF: 	32 NNNONO
chimesFF: 	13 NOAlNAlO
chimesFF: 	13 NOAlOAlN
chimesFF: 	23 NOCNCO
chimesFF: 	23 NOCOCN
chimesFF: 	29 NOHNHO
chimesFF: 	29 NOHOHN
chimesFF: 	32 NONNNO
chimesFF: 	32 NONONN
chimesFF: 	33 NONOOO
chimesFF: 	33 NOOONO
chimesFF: 	14 OOAlOAlO
chimesFF: 	24 OOCOCO
chimesFF: 	30 OOHOHO
chimesFF: 	33 OONONO
chimesFF: 	34 OOOOOO
chimesFF: Built the following 3-body pair "fast" map:
chimesFF: 	0 0
chimesFF: 	1 1
chimesFF: 	2 2
chimesFF: 	3 3
chimesFF: 	4 4
chimesFF: 	5 1
chimesFF: 	6 5
chimesFF: 	7 6
chimesFF: 	8 7
chimesFF: 	9 8
chimesFF: 	10 2
chimesFF: 	11 6
chimesFF: 	12 9
chimesFF: 	13 10
chimesFF: 	14 11
chimesFF: 	15 3
chimesFF: 	16 7
chimesFF: 	17 10
chimesFF: 	18 12
chimesFF: 	19 13
chimesFF: 	20 4
chimesFF: 	21 8
chimesFF: 	22 11
chimesFF: 	23 13
chimesFF: 	24 14
chimesFF: 	25 1
chimesFF: 	26 5
chimesFF: 	27 6
chimesFF: 	28 7
chimesFF: 	29 8
chimesFF: 	30 5
chimesFF: 	31 15
chimesFF: 	32 16
chimesFF: 	33 17
chimesFF: 	34 18
chimesFF: 	35 6
chimesFF: 	36 16
chimesFF: 	37 19
chimesFF: 	38 20
chimesFF: 	39 21
chimesFF: 	40 7
chimesFF: 	41 17
chimesFF: 	42 20
chimesFF: 	43 22
chimesFF: 	44 23
chimesFF: 	45 8
chimesFF: 	46 18
chimesFF: 	47 21
chimesFF: 	48 23
chimesFF: 	49 24
chimesFF: 	50 2
chimesFF: 	51 6
chimesFF: 	52 9
chimesFF: 	53 10
chimesFF: 	54 11
chimesFF: 	55 6
chimesFF: 	56 16
chimesFF: 	57 19
chimesFF: 	58 20
chimesFF: 	59 21
chimesFF: 	60 9
chimesFF: 	61 19
chimesFF: 	62 25
chimesFF: 	63 26
chimesFF: 	64 27
chimesFF: 	65 10
chimesFF: 	66 20
chimesFF: 	67 26
chimesFF: 	68 28
chimesFF: 	69 29
chimesFF: 	70 11
chimesFF: 	71 21
chimesFF: 	72 27
chimesFF: 	73 29
chimesFF: 	74 30
chimesFF: 	75 3
chimesFF: 	76 7
chimesFF: 	77 10
chimesFF: 	78 12
chimesFF: 	79 13
chimesFF: 	80 7
chimesFF: 	81 17
chimesFF: 	82 20
chimesFF: 	83 22
chimesFF: 	84 23
chimesFF: 	85 10
chimesFF: 	86 20
chimesFF: 	87 26
chimesFF: 	88 28
chimesFF: 	89 29
chimesFF: 	90 12
chimesFF: 	91 22
chimesFF: 	92 28
chimesFF: 	93 31
chimesFF: 	94 32
chimesFF: 	95 13
chimesFF: 	96 23
chimesFF: 	97 29
chimesFF: 	98 32
chimesFF: 	99 33
chimesFF: 	100 4
chimesFF: 	101 8
chimesFF: 	102 11
chimesFF: 	103 13
chimesFF: 	104 14
chimesFF: 	105 8
chimesFF: 	106 18
chimesFF: 	107 21
chimesFF: 	108 23
chimesFF: 	109 24
chimesFF: 	110 11
chimesFF: 	111 21
chimesFF: 	112 27
chimesFF: 	113 29
chimesFF: 	114 30
chimesFF: 	115 13
chimesFF: 	116 23
chimesFF: 	117 29
chimesFF: 	118 32
chimesFF: 	119 33
chimesFF: 	120 14
chimesFF: 	121 24
chimesFF: 	122 30
chimesFF: 	123 33
chimesFF: 	124 34
chimesFF: Set the following special 3-body outer cutoffs: 
chimesFF: 	0 5.00000 5.00000 5.00000
chimesFF: 	1 5.00000 5.00000 5.00000
chimesFF: 	2 5.00000 5.00000 5.00000
chimesFF: 	3 5.00000 5.00000 5.00000
chimesFF: 	4 5.00000 5.00000 5.00000
chimesFF: 	5 5.00000 5.00000 5.00000
chimesFF: 	6 5.00000 5.00000 5.00000
chimesFF: 	7 5.00000 5.00000 5.00000
chimesFF: 	8 5.00000 5.00000 5.00000
chimesFF: 	9 5.00000 5.00000 5.00000
chimesFF: 	10 5.00000 5.00000 5.00000
chimesFF: 	11 5.00000 5.00000 5.00000
chimesFF: 	12 5.00000 5.00000 5.00000
chimesFF: 	13 5.00000 5.00000 5.00000
chimesFF: 	14 5.00000 5.00000 5.00000
chimesFF: 	15 5.00000 5.00000 5.00000
chimesFF: 	16 5.00000 5.00000 5.00000
chimesFF: 	17 5.00000 5.00000 5.00000
chimesFF: 	18 5.00000 5.00000 5.00000
chimesFF: 	19 5.00000 5.00000 5.00000
chimesFF: 	20 5.00000 5.00000 5.00000
chimesFF: 	21 5.00000 5.00000 5.00000
chimesFF: 	22 5.00000 5.00000 5.00000
chimesFF: 	23 5.00000 5.00000 5.00000
chimesFF: 	24 5.00000 5.00000 5.00000
chimesFF: 	25 5.00000 5.00000 5.00000
chimesFF: 	26 5.00000 5.00000 5.00000
chimesFF: 	27 5.00000 5.00000 5.00000
chimesFF: 	28 5.00000 5.00000 5.00000
chimesFF: 	29 5.00000 5.00000 5.00000
chimesFF: 	30 5.00000 5.00000 5.00000
chimesFF: 	31 5.00000 5.00000 5.00000
chimesFF: 	32 5.00000 5.00000 5.00000
chimesFF: 	33 5.00000 5.00000 5.00000
chimesFF: 	34 5.00000 5.00000 5.00000
chimesFF: 	Setting 3-body max cutoff to: 5.00000
Neighbor list info ...
  update every 1 steps, delay 0 steps, check no
  max neighbors/atom: 10000, page size: 100000
  master list distance cutoff = 7
  ghost atom cutoff = 7
  binsize = 3.5, bins = 5 5 4
  1 neighbor lists, perpetual/occasional/extra = 1 0 0
  (1) pair chimesFF, perpetual
      attributes: full, newton on, ghost
      pair build: full/bin/ghost
      stencil: full/ghost/bin/3d
      bin: standard
Setting up Verlet run ...
  Unit style    : real
  Current step  : 0
  Time step     : 0.1
Updating chimesFF neighbor lists...
	Rank 0 3-body list size: 4565
	Rank 0 4-body list size: 0
	...update complete
chimesFF: Warning: Adding penalty in 2B Cheby calc, r < rmin+penalty_dist 3.754074 3.798000 pair type: 7
chimesFF: 	...Penalty potential = 8.475392
chimesFF: Warning: Adding penalty in 2B Cheby calc, r < rmin+penalty_dist 1.417470 1.443000 pair type: 4
chimesFF: 	...Penalty potential = 1.664068
chimesFF: Warning: Adding penalty in 2B Cheby calc, r < rmin+penalty_dist 0.740990 0.753000 pair type: 2
chimesFF: 	...Penalty potential = 0.173231
Per MPI rank memory allocation (min/avg/max) = 3.855 | 3.857 | 3.859 Mbytes
Time Step Temp TotEng PotEng KinEng Press Volume Density Enthalpy Pxx Pyy Pzz Lx Ly Lz 
                   0        0                  300    -40676.3794039432    -40950.9120095482        274.532605605     96257.9534657167     2453.38561052904     1.80407843490206    -37232.2589888547     69937.5054797967     115936.675633739     102899.679283615         11.897069931         15.009448051         13.739188351 
Updating chimesFF neighbor lists...
	Rank 0 3-body list size: 4566
	Rank 0 4-body list size: 0
	...update complete
chimesFF: Warning: Adding penalty in 2B Cheby calc, r < rmin+penalty_dist 3.754375 3.798000 pair type: 7
chimesFF: 	...Penalty potential = 8.302299
chimesFF: Warning: Adding penalty in 2B Cheby calc, r < rmin+penalty_dist 1.416899 1.443000 pair type: 4
chimesFF: 	...Penalty potential = 1.778066
chimesFF: Warning: Adding penalty in 2B Cheby calc, r < rmin+penalty_dist 0.741599 0.753000 pair type: 2
chimesFF: 	...Penalty potential = 0.148184
                 0.1        1     299.628173117358    -40676.3798997532    -40950.5722433484     274.192343595247     96451.5296030873     2453.38561052904     1.80407843490206      -37225.33330867     70647.7684380974     115791.940194694     102914.880176471         11.897069931         15.009448051         13.739188351 
Updating chimesFF neighbor lists...
	Rank 0 3-body list size: 4565
	Rank 0 4-body list size: 0
	...update complete
chimesFF: Warning: Adding penalty in 2B Cheby calc, r < rmin+penalty_dist 3.754935 3.798000 pair type: 7
chimesFF: 	...Penalty potential = 7.986694
chimesFF: Warning: Adding penalty in 2B Cheby calc, r < rmin+penalty_dist 1.416438 1.443000 pair type: 4
chimesFF: 	...Penalty potential = 1.874100
chimesFF: Warning: Adding penalty in 2B Cheby calc, r < rmin+penalty_dist 0.742547 0.753000 pair type: 2
chimesFF: 	...Penalty potential = 0.114215
                 0.2        2     299.025847004706    -40676.3805974893    -40950.0217472275     273.641149738147     96379.0704191273     2453.38561052904     1.80407843490206    -37227.9266041682     71340.6574638125     115135.561397894     102660.992395676         11.897069931         15.009448051         13.739188351 
Updating chimesFF neighbor lists...
	Rank 0 3-body list size: 4566
	Rank 0 4-body list size: 0
	...update complete
chimesFF: Warning: Adding penalty in 2B Cheby calc, r < rmin+penalty_dist 3.755747 3.798000 pair type: 7
chimesFF: 	...Penalty potential = 7.543444
chimesFF: Warning: Adding penalty in 2B Cheby calc, r < rmin+penalty_dist 1.416088 1.443000 pair type: 4
chimesFF: 	...Penalty potential = 1.949023
chimesFF: Warning: Adding penalty in 2B Cheby calc, r < rmin+penalty_dist 0.743774 0.753000 pair type: 2
chimesFF: 	...Penalty potential = 0.078529
                 0.3        3     298.181657097583    -40676.3812748498    -40949.2498990719     272.868624222054     96058.0479662053     2453.38561052904     1.80407843490206    -37239.4135010461     72013.0892235154     114011.245692533     102149.808982568         11.897069931         15.009448051         13.739188351 
Updating chimesFF neighbor lists...
	Rank 0 3-body list size: 4549
	Rank 0 4-body list size: 0
	...update complete
chimesFF: Warning: Adding penalty in 2B Cheby calc, r < rmin+penalty_dist 3.756801 3.798000 pair type: 7
chimesFF: 	...Penalty potential = 6.992870
chimesFF: Warning: Adding penalty in 2B Cheby calc, r < rmin+penalty_dist 0.745210 0.753000 pair type: 2
chimesFF: 	...Penalty potential = 0.047266
chimesFF: Warning: Adding penalty in 2B Cheby calc, r < rmin+penalty_dist 1.415854 1.443000 pair type: 4
chimesFF: 	...Penalty potential = 2.000331
                 0.4        4      297.08421167486    -40676.3817428721    -40948.2460852561     271.864342384023      95512.579935367     2453.38561052904     1.80407843490206    -37258.9308766396      72662.246494874     112475.389606203     101400.103705024         11.897069931         15.009448051         13.739188351 
Updating chimesFF neighbor lists...
	Rank 0 3-body list size: 4573
	Rank 0 4-body list size: 0
	...update complete
chimesFF: Warning: Adding penalty in 2B Cheby calc, r < rmin+penalty_dist 3.758085 3.798000 pair type: 7
chimesFF: 	...Penalty potential = 6.359301
chimesFF: Warning: Adding penalty in 2B Cheby calc, r < rmin+penalty_dist 0.746783 0.753000 pair type: 2
chimesFF: 	...Penalty potential = 0.024026
chimesFF: Warning: Adding penalty in 2B Cheby calc, r < rmin+penalty_dist 1.415737 1.443000 pair type: 4
chimesFF: 	...Penalty potential = 2.026287
                 0.5        5     295.725149579501    -40676.3818878516    -40947.0025407083     270.620652856629     94771.5256400755     2453.38561052904     1.80407843490206    -37285.4460277585     73285.4248383733     110593.020067743      100436.13201411         11.897069931         15.009448051         13.739188351 
Updating chimesFF neighbor lists...
	Rank 0 3-body list size: 4559
	Rank 0 4-body list size: 0
	...update complete
chimesFF: Warning: Adding penalty in 2B Cheby calc, r < rmin+penalty_dist 3.759584 3.798000 pair type: 7
chimesFF: 	...Penalty potential = 5.669418
chimesFF: Warning: Adding penalty in 2B Cheby calc, r < rmin+penalty_dist 0.748425 0.753000 pair type: 2
chimesFF: 	...Penalty potential = 0.009573
chimesFF: Warning: Adding penalty in 2B Cheby calc, r < rmin+penalty_dist 1.415739 1.443000 pair type: 4
chimesFF: 	...Penalty potential = 2.026020
                 0.6        6     294.101041831122    -40676.3816697677    -40945.5160875178     269.134417750143     93866.4806082338     2453.38561052904     1.80407843490206    -37317.8284228355     73880.1275519715     108433.085601572     99286.2286711585         11.897069931         15.009448051         13.739188351 
Updating chimesFF neighbor lists...
	Rank 0 3-body list size: 4562
	Rank 0 4-body list size: 0
	...update complete
chimesFF: Warning: Adding penalty in 2B Cheby calc, r < rmin+penalty_dist 3.761282 3.798000 pair type: 7
chimesFF: 	...Penalty potential = 4.950540
chimesFF: Warning: Adding penalty in 2B Cheby calc, r < rmin+penalty_dist 0.750079 0.753000 pair type: 2
chimesFF: 	...Penalty potential = 0.002491
chimesFF: Warning: Adding penalty in 2B Cheby calc, r < rmin+penalty_dist 1.415858 1.443000 pair type: 4
chimesFF: 	...Penalty potential = 1.999567
                 0.7        7     292.214164065972    -40676.3810835305    -40943.7888030496     267.407719519061     92830.2933387566     2453.38561052904     1.80407843490206    -37354.9027337904     74444.1794770814      106064.61126487     97982.0892743187         11.897069931         15.009448051         13.739188351 
Updating chimesFF neighbor lists...
	Rank 0 3-body list size: 4562
	Rank 0 4-body list size: 0
	...update complete
chimesFF: Warning: Adding penalty in 2B Cheby calc, r < rmin+penalty_dist 3.763160 3.798000 pair type: 7
chimesFF: 	...Penalty potential = 4.228993
chimesFF: Warning: Adding penalty in 2B Cheby calc, r < rmin+penalty_dist 0.751701 0.753000 pair type: 2
chimesFF: 	...Penalty potential = 0.000219
chimesFF: Warning: Adding penalty in 2B Cheby calc, r < rmin+penalty_dist 1.416094 1.443000 pair type: 4
chimesFF: 	...Penalty potential = 1.947869
                 0.8        8     290.072633594432    -40676.3801295883    -40941.8281159729     265.447986384613     91695.7127343308     2453.38561052904     1.80407843490206    -37395.4972016452     74975.2744187407     103555.018283754     96556.8455004973         11.897069931         15.009448051         13.739188351 
Updating chimesFF neighbor lists...
	Rank 0 3-body list size: 4561
	Rank 0 4-body list size: 0
	...update complete
chimesFF: Warning: Adding penalty in 2B Cheby calc, r < rmin+penalty_dist 3.765200 3.798000 pair type: 7
chimesFF: 	...Penalty potential = 3.528704
chimesFF: Warning: Adding penalty in 2B Cheby calc, r < rmin+penalty_dist 1.416444 1.443000 pair type: 4
chimesFF: 	...Penalty potential = 1.872724
                 0.9        9     287.690341484338    -40676.3788224647    -40939.6467526484     263.267930183625     90494.6585480371     2453.38561052904     1.80407843490206     -37438.469748564     75471.0648502916     100968.790795051     95044.1199987687         11.897069931         15.009448051         13.739188351 
Updating chimesFF neighbor lists...
	Rank 0 3-body list size: 4583
	Rank 0 4-body list size: 0
	...update complete
chimesFF: Warning: Adding penalty in 2B Cheby calc, r < rmin+penalty_dist 3.767383 3.798000 pair type: 7
chimesFF: 	...Penalty potential = 2.870085
chimesFF: Warning: Adding penalty in 2B Cheby calc, r < rmin+penalty_dist 1.416906 1.443000 pair type: 4
chimesFF: 	...Penalty potential = 1.776683
                   1       10      285.08623273348    -40676.3772798845    -40937.2621675326     260.884887648119      89252.146768899     2453.38561052904     1.80407843490206    -37482.9254173667     75929.5289544698     98351.4134976153      93475.497854612         11.897069931         15.009448051         13.739188351 
Updating chimesFF neighbor lists...
	Rank 0 3-body list size: 4583
	Rank 0 4-body list size: 0
	...update complete
chimesFF: Warning: Adding penalty in 2B Cheby calc, r < rmin+penalty_dist 3.769688 3.798000 pair type: 7
chimesFF: 	...Penalty potential = 2.269289
chimesFF: Warning: Adding penalty in 2B Cheby calc, r < rmin+penalty_dist 1.417476 1.443000 pair type: 4
chimesFF: 	...Penalty potential = 1.662919
                 1.1       11     282.284259542219    -40676.3753222348    -40934.6960998794     258.320777644678     87994.6722729263     2453.38561052904     1.80407843490206    -37527.9160387933     76348.4865234998     95754.1630354048     91881.3672598743         11.897069931         15.009448051         13.739188351 
Updating chimesFF neighbor lists...
	Rank 0 3-body list size: 4584
	Rank 0 4-body list size: 0
	...update complete
chimesFF: Warning: Adding penalty in 2B Cheby calc, r < rmin+penalty_dist 3.772098 3.798000 pair type: 7
chimesFF: 	...Penalty potential = 1.737821
chimesFF: Warning: Adding penalty in 2B Cheby calc, r < rmin+penalty_dist 1.418147 1.443000 pair type: 4
chimesFF: 	...Penalty potential = 1.535066
                 1.2       12     279.314219616616    -40676.3729793585    -40931.9758476714     255.602868312923     86750.7208854171     2453.38561052904     1.80407843490206    -37572.4224166497     76727.0365115401     93233.1372364575     90291.9889082539         11.897069931         15.009448051         13.739188351 
Updating chimesFF neighbor lists...
	Rank 0 3-body list size: 4586
	Rank 0 4-body list size: 0
	...update complete
chimesFF: Warning: Adding penalty in 2B Cheby calc, r < rmin+penalty_dist 3.774593 3.798000 pair type: 7
chimesFF: 	...Penalty potential = 1.282503
chimesFF: Warning: Adding penalty in 2B Cheby calc, r < rmin+penalty_dist 1.418916 1.443000 pair type: 4
chimesFF: 	...Penalty potential = 1.397035
                 1.3       13     276.211632923514    -40676.3703028614    -40929.1339671444     252.763664283013     85545.6979991355     2453.38561052904     1.80407843490206    -37615.5355947273     77064.3603134671      90837.863152429     88734.8705315106         11.897069931         15.009448051         13.739188351 
Updating chimesFF neighbor lists...
	Rank 0 3-body list size: 3622
	Rank 0 4-body list size: 0
	...update complete
chimesFF: Warning: Adding penalty in 2B Cheby calc, r < rmin+penalty_dist 3.777155 3.798000 pair type: 7
chimesFF: 	...Penalty potential = 0.905721
chimesFF: Warning: Adding penalty in 2B Cheby calc, r < rmin+penalty_dist 1.419775 1.443000 pair type: 4
chimesFF: 	...Penalty potential = 1.252835
                 1.4       14     273.016823739525    -40676.3673616664    -40926.2074283171      249.84006665071     84401.7465867092     2453.38561052904     1.80407843490206     -37656.463363895     77360.0793890036     88610.2081645313     87234.9522065925         11.897069931         15.009448051         13.739188351 
Updating chimesFF neighbor lists...
	Rank 0 3-body list size: 3623
	Rank 0 4-body list size: 0
	...update complete
chimesFF: Warning: Adding penalty in 2B Cheby calc, r < rmin+penalty_dist 3.779769 3.798000 pair type: 7
chimesFF: 	...Penalty potential = 0.605900
chimesFF: Warning: Adding penalty in 2B Cheby calc, r < rmin+penalty_dist 1.420717 1.443000 pair type: 4
chimesFF: 	...Penalty potential = 1.106398
                 1.5       15     269.773723657388    -40676.3642325183    -40923.2365101164     246.872277598086      83337.072649572     2453.38561052904     1.80407843490206    -37694.5543881158     77613.1733856464     86584.9716754634     85813.0728876064         11.897069931         15.009448051         13.739188351 
Updating chimesFF neighbor lists...
	Rank 0 3-body list size: 3622
	Rank 0 4-body list size: 0
	...update complete
chimesFF: Warning: Adding penalty in 2B Cheby calc, r < rmin+penalty_dist 3.782421 3.798000 pair type: 7
chimesFF: 	...Penalty potential = 0.378133
chimesFF: Warning: Adding penalty in 2B Cheby calc, r < rmin+penalty_dist 1.421736 1.443000 pair type: 4
chimesFF: 	...Penalty potential = 0.961414
                 1.6       16     266.528492401549    -40676.3609990005    -40920.2635372904     243.902538289899     82366.5996257303     2453.38561052904     1.80407843490206    -37729.2747886809     77823.1279799384     84789.6491536676     84487.0217435849         11.897069931         15.009448051         13.739188351 
Updating chimesFF neighbor lists...
	Rank 0 3-body list size: 3622
	Rank 0 4-body list size: 0
	...update complete
chimesFF: Warning: Adding penalty in 2B Cheby calc, r < rmin+penalty_dist 3.785096 3.798000 pair type: 7
chimesFF: 	...Penalty potential = 0.214866
chimesFF: Warning: Adding penalty in 2B Cheby calc, r < rmin+penalty_dist 1.422825 1.443000 pair type: 4
chimesFF: 	...Penalty potential = 0.821205
                 1.7       17     263.328065565889    -40676.3577446351    -40917.3315445308     240.973799895759     81501.8325543117     2453.38561052904     1.80407843490206    -37760.2129975165     77989.7330702932     83244.5107313478      83271.253861294         11.897069931         15.009448051         13.739188351 
Updating chimesFF neighbor lists...
	Rank 0 3-body list size: 3624
	Rank 0 4-body list size: 0
	...update complete
chimesFF: Warning: Adding penalty in 2B Cheby calc, r < rmin+penalty_dist 3.787784 3.798000 pair type: 7
chimesFF: 	...Penalty potential = 0.106609
chimesFF: Warning: Adding penalty in 2B Cheby calc, r < rmin+penalty_dist 1.423975 1.443000 pair type: 4
chimesFF: 	...Penalty potential = 0.688617
                 1.8       18     260.218704548324    -40676.3545464314    -40914.4829430541     238.128396622697      80751.336794001     2453.38561052904     1.80407843490206    -37787.0626221338     78113.1523641818     81963.6138426705     82177.2441751507         11.897069931         15.009448051         13.739188351 
Updating chimesFF neighbor lists...
	Rank 0 3-body list size: 3624
	Rank 0 4-body list size: 0
	...update complete
chimesFF: Warning: Adding penalty in 2B Cheby calc, r < rmin+penalty_dist 3.790476 3.798000 pair type: 7
chimesFF: 	...Penalty potential = 0.042586
chimesFF: Warning: Adding penalty in 2B Cheby calc, r < rmin+penalty_dist 1.425179 1.443000 pair type: 4
chimesFF: 	...Penalty potential = 0.565953
                 1.9       19     257.244637717277     -40676.351474224    -40911.7582764587     235.406802234794     80120.9663914003     2453.38561052904     1.80407843490206    -37809.6142739205     78193.2278185686     80955.8172758691     81213.8540797631         11.897069931         15.009448051         13.739188351 
Updating chimesFF neighbor lists...
	Rank 0 3-body list size: 3625
	Rank 0 4-body list size: 0
	...update complete
chimesFF: Warning: Adding penalty in 2B Cheby calc, r < rmin+penalty_dist 3.793165 3.798000 pair type: 7
chimesFF: 	...Penalty potential = 0.011302
chimesFF: Warning: Adding penalty in 2B Cheby calc, r < rmin+penalty_dist 1.426430 1.443000 pair type: 4
chimesFF: 	...Penalty potential = 0.454935
                   2       20     254.446842853915    -40676.3485849981    -40909.1951008536     232.846515855505     79614.2793348405     2453.38561052904     1.80407843490206    -37827.7407046389     78230.2321739333     80225.3989356328     80387.2068949555         11.897069931         15.009448051         13.739188351 
Updating chimesFF neighbor lists...
	Rank 0 3-body list size: 3625
	Rank 0 4-body list size: 0
	...update complete
chimesFF: Warning: Adding penalty in 2B Cheby calc, r < rmin+penalty_dist 3.795845 3.798000 pair type: 7
chimesFF: 	...Penalty potential = 0.001001
chimesFF: Warning: Adding penalty in 2B Cheby calc, r < rmin+penalty_dist 1.427721 1.443000 pair type: 4
chimesFF: 	...Penalty potential = 0.356702
                 2.1       21     251.862017222464     -40676.345923306     -40906.827042776     230.481119470048     79233.2597161787     2453.38561052904     1.80407843490206     -37841.370967811     78224.5923935168     79773.4485710618     79701.7381839576         11.897069931         15.009448051         13.739188351 
Updating chimesFF neighbor lists...
	Rank 0 3-body list size: 3624
	Rank 0 4-body list size: 0
	...update complete
chimesFF: Warning: Adding penalty in 2B Cheby calc, r < rmin+penalty_dist 1.429044 1.443000 pair type: 4
chimesFF: 	...Penalty potential = 0.271827
                 2.2       22     249.521674012388    -40676.3436110686    -40904.6830621404     228.339451071808     78975.8060525812     2453.38561052904     1.80407843490206    -37850.5803766503     78176.6911616719     79593.0442964456     79157.6826996263         11.897069931         15.009448051         13.739188351 
Updating chimesFF neighbor lists...
	Rank 0 3-body list size: 3624
	Rank 0 4-body list size: 0
	...update complete
chimesFF: Warning: Adding penalty in 2B Cheby calc, r < rmin+penalty_dist 1.430393 1.443000 pair type: 4
chimesFF: 	...Penalty potential = 0.200366
                 2.3       23     247.447594009552     -40676.342402443    -40902.7838448901     226.441442447102     78743.8324039791     2453.38561052904     1.80407843490206    -37858.8792112954     78085.8703031605     79481.6386091897     78663.9882995872         11.897069931         15.009448051         13.739188351 
Updating chimesFF neighbor lists...
	Rank 0 3-body list size: 3624
	Rank 0 4-body list size: 0
	...update complete
chimesFF: Warning: Adding penalty in 2B Cheby calc, r < rmin+penalty_dist 1.431762 1.443000 pair type: 4
chimesFF: 	...Penalty potential = 0.141916
                 2.4       24     245.649844850433    -40676.3414378162    -40901.1377443937     224.796306577511     78490.0253611963     2453.38561052904     1.80407843490206    -37867.9594912418     77952.4248114664     79339.9145993374     78177.7366727852         11.897069931         15.009448051         13.739188351 
Updating chimesFF neighbor lists...
	Rank 0 3-body list size: 3624
	Rank 0 4-body list size: 0
	...update complete
chimesFF: Warning: Adding penalty in 2B Cheby calc, r < rmin+penalty_dist 1.433146 1.443000 pair type: 4
chimesFF: 	...Penalty potential = 0.095686
                 2.5       25     244.130917956004    -40676.3407115938    -40899.7470349778     223.406323384007     78216.5804896972     2453.38561052904     1.80407843490206    -37877.7426533156      77777.547999296     79169.2612288465      77702.932240949         11.897069931         15.009448051         13.739188351 
Updating chimesFF neighbor lists...
	Rank 0 3-body list size: 3624
	Rank 0 4-body list size: 0
	...update complete
chimesFF: Warning: Adding penalty in 2B Cheby calc, r < rmin+penalty_dist 1.434539 1.443000 pair type: 4
chimesFF: 	...Penalty potential = 0.060573
                 2.6       26     242.887826919513    -40676.3402085066    -40898.6089684865     222.268759979834     77925.2235967912     2453.38561052904     1.80407843490206    -37888.1669326678     77562.7010219872     78970.8985038936     77242.0712644927         11.897069931         15.009448051         13.739188351 
Updating chimesFF neighbor lists...
	Rank 0 3-body list size: 3621
	Rank 0 4-body list size: 0
	...update complete
chimesFF: Warning: Adding penalty in 2B Cheby calc, r < rmin+penalty_dist 1.435937 1.443000 pair type: 4
chimesFF: 	...Penalty potential = 0.035237
                 2.7       27     241.912301299329    -40676.3399090595    -40897.7159570715     221.376048012022     77617.9134359714     2453.38561052904     1.80407843490206    -37899.1622253825     77309.3022190915     78746.3245902381     76798.1134985847         11.897069931         15.009448051         13.739188351 
Updating chimesFF neighbor lists...
	Rank 0 3-body list size: 3620
	Rank 0 4-body list size: 0
	...update complete
chimesFF: Warning: Adding penalty in 2B Cheby calc, r < rmin+penalty_dist 1.437336 1.443000 pair type: 4
chimesFF: 	...Penalty potential = 0.018172
                 2.8       28     241.191096511434    -40676.3397876784    -40897.0558549251     220.716067246703     77296.9464147063     2453.38561052904     1.80407843490206     -37910.646340168     77019.2875144194     78497.7150310474     76373.8366986521         11.897069931         15.009448051         13.739188351 
Updating chimesFF neighbor lists...
	Rank 0 3-body list size: 3623
	Rank 0 4-body list size: 0
	...update complete
chimesFF: Warning: Adding penalty in 2B Cheby calc, r < rmin+penalty_dist 1.438733 1.443000 pair type: 4
chimesFF: 	...Penalty potential = 0.007770
                 2.9       29     240.706405408768    -40676.3398140538    -40896.6123362628     220.272522208942     76964.6045954889     2453.38561052904     1.80407843490206    -37922.5375942617     76694.9086730605     78226.7791720133      75972.125941393         11.897069931         15.009448051         13.739188351 
Updating chimesFF neighbor lists...
	Rank 0 3-body list size: 3623
	Rank 0 4-body list size: 0
	...update complete
chimesFF: Warning: Adding penalty in 2B Cheby calc, r < rmin+penalty_dist 1.440125 1.443000 pair type: 4
chimesFF: 	...Penalty potential = 0.002376
[...]
chimesFF: 	...Penalty potential = 3.096822
chimesFF: Warning: Adding penalty in 2B Cheby calc, r < rmin+penalty_dist 0.727820 0.753000 pair type: 2
chimesFF: 	...Penalty potential = 1.596508
                  48      480     354.146507257875    -40665.6746238252    -40989.7571685033     324.082544678048     62767.7660370552     2453.38561052904     1.80407843490206    -38419.8368864302     49098.9829556084     58946.1880449578     80258.1271105992         11.897069931         15.009448051         13.739188351 
Updating chimesFF neighbor lists...
	Rank 0 3-body list size: 6937
	Rank 0 4-body list size: 0
	...update complete
chimesFF: Warning: Adding penalty in 2B Cheby calc, r < rmin+penalty_dist 1.433808 1.443000 pair type: 4
chimesFF: 	...Penalty potential = 0.077660
chimesFF: Warning: Adding penalty in 2B Cheby calc, r < rmin+penalty_dist 0.814857 0.842000 pair type: 13
chimesFF: 	...Penalty potential = 1.999748
chimesFF: Warning: Adding penalty in 2B Cheby calc, r < rmin+penalty_dist 0.724761 0.753000 pair type: 2
chimesFF: 	...Penalty potential = 2.251952
                48.1      481     356.928041624568    -40665.6693867819    -40992.2973377175     326.627950935609     62483.2617306273     2453.38561052904     1.80407843490206    -38430.0112455102     48975.4644433991     59015.4963379765     79458.8244105065         11.897069931         15.009448051         13.739188351 
Updating chimesFF neighbor lists...
	Rank 0 3-body list size: 6971
	Rank 0 4-body list size: 0
	...update complete
chimesFF: Warning: Adding penalty in 2B Cheby calc, r < rmin+penalty_dist 1.434452 1.443000 pair type: 4
chimesFF: 	...Penalty potential = 0.062460
chimesFF: Warning: Adding penalty in 2B Cheby calc, r < rmin+penalty_dist 0.820453 0.842000 pair type: 13
chimesFF: 	...Penalty potential = 1.000324
chimesFF: Warning: Adding penalty in 2B Cheby calc, r < rmin+penalty_dist 0.722272 0.753000 pair type: 2
chimesFF: 	...Penalty potential = 2.901426
                48.2      482     359.876904740214    -40665.6378471081    -40994.9643282928     329.326481184645     62100.0896747929     2453.38561052904     1.80407843490206    -38443.6896451452     48834.0294282082     59093.1301921192     78373.1094040513         11.897069931         15.009448051         13.739188351 
Updating chimesFF neighbor lists...
	Rank 0 3-body list size: 6945
	Rank 0 4-body list size: 0
	...update complete
chimesFF: Warning: Adding penalty in 2B Cheby calc, r < rmin+penalty_dist 1.435131 1.443000 pair type: 4
chimesFF: 	...Penalty potential = 0.048727
chimesFF: Warning: Adding penalty in 2B Cheby calc, r < rmin+penalty_dist 0.826778 0.842000 pair type: 13
chimesFF: 	...Penalty potential = 0.352687
chimesFF: Warning: Adding penalty in 2B Cheby calc, r < rmin+penalty_dist 0.721183 0.753000 pair type: 2
chimesFF: 	...Penalty potential = 3.220938
                48.3      483     362.822982182482      -40665.58924733    -40997.6117095697     332.022462239777     61644.8665233375     2453.38561052904     1.80407843490206     -38459.928980991     48601.6667648552     59196.5576878577     77136.3751172995         11.897069931         15.009448051         13.739188351 
Updating chimesFF neighbor lists...
	Rank 0 3-body list size: 6945
	Rank 0 4-body list size: 0
	...update complete
chimesFF: Warning: Adding penalty in 2B Cheby calc, r < rmin+penalty_dist 1.435843 1.443000 pair type: 4
chimesFF: 	...Penalty potential = 0.036658
chimesFF: Warning: Adding penalty in 2B Cheby calc, r < rmin+penalty_dist 0.985104 0.991000 pair type: 9
chimesFF: 	...Penalty potential = 0.020493
chimesFF: Warning: Adding penalty in 2B Cheby calc, r < rmin+penalty_dist 0.833374 0.842000 pair type: 13
chimesFF: 	...Penalty potential = 0.064175
chimesFF: Warning: Adding penalty in 2B Cheby calc, r < rmin+penalty_dist 0.722062 0.753000 pair type: 2
chimesFF: 	...Penalty potential = 2.961305
                48.4      484     365.762290642894    -40665.6024646523    -41000.3147135931     334.712248940824     61215.1063668309     2453.38561052904     1.80407843490206    -38475.3190651105     48231.3900814413     59348.9688756077     76064.9601434436         11.897069931         15.009448051         13.739188351 
Updating chimesFF neighbor lists...
	Rank 0 3-body list size: 6945
	Rank 0 4-body list size: 0
	...update complete
chimesFF: Warning: Adding penalty in 2B Cheby calc, r < rmin+penalty_dist 2.26349 2.26500 pair type: 6
chimesFF: 	...Penalty potential = 0.00034
chimesFF: Warning: Adding penalty in 2B Cheby calc, r < rmin+penalty_dist 1.436586 1.443000 pair type: 4
chimesFF: 	...Penalty potential = 0.026381
chimesFF: Warning: Adding penalty in 2B Cheby calc, r < rmin+penalty_dist 0.971017 0.991000 pair type: 9
chimesFF: 	...Penalty potential = 0.798002
chimesFF: Warning: Adding penalty in 2B Cheby calc, r < rmin+penalty_dist 0.840037 0.842000 pair type: 13
chimesFF: 	...Penalty potential = 0.000756
chimesFF: Warning: Adding penalty in 2B Cheby calc, r < rmin+penalty_dist 0.725050 0.753000 pair type: 2
chimesFF: 	...Penalty potential = 2.183577
                48.5      485     367.857592242424    -40665.7014373581    -41002.3311149911     336.629677632981      61642.862794825     2453.38561052904     1.80407843490206     -38460.112864651     47955.9210785231     59710.7052924271     77261.9620135247         11.897069931         15.009448051         13.739188351 
Updating chimesFF neighbor lists...
	Rank 0 3-body list size: 6925
	Rank 0 4-body list size: 0
	...update complete
chimesFF: Warning: Adding penalty in 2B Cheby calc, r < rmin+penalty_dist 0.749625 0.753000 pair type: 2
chimesFF: 	...Penalty potential = 0.003845
chimesFF: Warning: Adding penalty in 2B Cheby calc, r < rmin+penalty_dist 2.26192 2.26500 pair type: 6
chimesFF: 	...Penalty potential = 0.00293
chimesFF: Warning: Adding penalty in 2B Cheby calc, r < rmin+penalty_dist 1.437359 1.443000 pair type: 4
chimesFF: 	...Penalty potential = 0.017951
chimesFF: Warning: Adding penalty in 2B Cheby calc, r < rmin+penalty_dist 0.957745 0.991000 pair type: 9
chimesFF: 	...Penalty potential = 3.677698
chimesFF: Warning: Adding penalty in 2B Cheby calc, r < rmin+penalty_dist 0.729851 0.753000 pair type: 2
chimesFF: 	...Penalty potential = 1.240431
                48.6      486     367.584497164018    -40665.7402455848    -41002.1200115396     336.379765954805     62987.7374962836     2453.38561052904     1.80407843490206    -38412.0319046065     47917.1539240173     60281.3211727708     80764.7373920627         11.897069931         15.009448051         13.739188351 
Updating chimesFF neighbor lists...
	Rank 0 3-body list size: 6927
	Rank 0 4-body list size: 0
	...update complete
chimesFF: Warning: Adding penalty in 2B Cheby calc, r < rmin+penalty_dist 2.26037 2.26500 pair type: 6
chimesFF: 	...Penalty potential = 0.00990
chimesFF: Warning: Adding penalty in 2B Cheby calc, r < rmin+penalty_dist 0.741394 0.753000 pair type: 2
chimesFF: 	...Penalty potential = 0.156313
chimesFF: Warning: Adding penalty in 2B Cheby calc, r < rmin+penalty_dist 1.438158 1.443000 pair type: 4
chimesFF: 	...Penalty potential = 0.011349
chimesFF: Warning: Adding penalty in 2B Cheby calc, r < rmin+penalty_dist 0.946304 0.991000 pair type: 9
chimesFF: 	...Penalty potential = 8.929274
chimesFF: Warning: Adding penalty in 2B Cheby calc, r < rmin+penalty_dist 0.735896 0.753000 pair type: 2
chimesFF: 	...Penalty potential = 0.500358
                48.7      487     364.348962657527    -40665.6350834434    -40999.0539836695     333.418900226166     64982.4904618434     2453.38561052904     1.80407843490206    -38340.5542567183     48247.7208884029     61165.6159763703      85534.134520757         11.897069931         15.009448051         13.739188351 
Updating chimesFF neighbor lists...
	Rank 0 3-body list size: 6891
	Rank 0 4-body list size: 0
	...update complete
chimesFF: Warning: Adding penalty in 2B Cheby calc, r < rmin+penalty_dist 0.734116 0.753000 pair type: 2
chimesFF: 	...Penalty potential = 0.673391
chimesFF: Warning: Adding penalty in 2B Cheby calc, r < rmin+penalty_dist 2.25888 2.26500 pair type: 6
chimesFF: 	...Penalty potential = 0.02289
chimesFF: Warning: Adding penalty in 2B Cheby calc, r < rmin+penalty_dist 1.438983 1.443000 pair type: 4
chimesFF: 	...Penalty potential = 0.006480
chimesFF: Warning: Adding penalty in 2B Cheby calc, r < rmin+penalty_dist 0.937956 0.991000 pair type: 9
chimesFF: 	...Penalty potential = 14.924715
chimesFF: Warning: Adding penalty in 2B Cheby calc, r < rmin+penalty_dist 0.742593 0.753000 pair type: 2
chimesFF: 	...Penalty potential = 0.112724
                48.8      488     359.746335668134    -40665.3813864084    -40994.5883827012     329.206996292746     67020.0858976127     2453.38561052904     1.80407843490206    -38267.3951655278     48912.9384284235     62115.3596322203     90031.9596321944         11.897069931         15.009448051         13.739188351 
Updating chimesFF neighbor lists...
	Rank 0 3-body list size: 6890
	Rank 0 4-body list size: 0
	...update complete
chimesFF: Warning: Adding penalty in 2B Cheby calc, r < rmin+penalty_dist 0.728476 0.753000 pair type: 2
chimesFF: 	...Penalty potential = 1.474898
chimesFF: Warning: Adding penalty in 2B Cheby calc, r < rmin+penalty_dist 2.25747 2.26500 pair type: 6
chimesFF: 	...Penalty potential = 0.04263
chimesFF: Warning: Adding penalty in 2B Cheby calc, r < rmin+penalty_dist 1.439832 1.443000 pair type: 4
chimesFF: 	...Penalty potential = 0.003179
chimesFF: Warning: Adding penalty in 2B Cheby calc, r < rmin+penalty_dist 0.933851 0.991000 pair type: 9
chimesFF: 	...Penalty potential = 18.664987
chimesFF: Warning: Adding penalty in 2B Cheby calc, r < rmin+penalty_dist 0.749486 0.753000 pair type: 2
chimesFF: 	...Penalty potential = 0.004341
                48.9      489     357.323777418445    -40665.1407104871    -40992.1308026848      326.99009219769     68320.5275712587     2453.38561052904     1.80407843490206    -38220.6245400742     49695.6633570341     62775.4718643054     92490.4474924366         11.897069931         15.009448051         13.739188351 
Updating chimesFF neighbor lists...
	Rank 0 3-body list size: 6890
	Rank 0 4-body list size: 0
	...update complete
chimesFF: Warning: Adding penalty in 2B Cheby calc, r < rmin+penalty_dist 2.25618 2.26500 pair type: 6
chimesFF: 	...Penalty potential = 0.06865
chimesFF: Warning: Adding penalty in 2B Cheby calc, r < rmin+penalty_dist 0.725200 0.753000 pair type: 2
chimesFF: 	...Penalty potential = 2.148491
chimesFF: Warning: Adding penalty in 2B Cheby calc, r < rmin+penalty_dist 1.440703 1.443000 pair type: 4
chimesFF: 	...Penalty potential = 0.001211
chimesFF: Warning: Adding penalty in 2B Cheby calc, r < rmin+penalty_dist 0.934623 0.991000 pair type: 9
chimesFF: 	...Penalty potential = 17.918306
                  49      490     360.190010721519     -40665.093112822    -40994.7061200096     329.613007187572     68286.4296423628     2453.38561052904     1.80407843490206     -38221.796970145     50288.3492220356     62878.7540266268     91692.1856784262         11.897069931         15.009448051         13.739188351 
Updating chimesFF neighbor lists...
	Rank 0 3-body list size: 6890
	Rank 0 4-body list size: 0
	...update complete
chimesFF: Warning: Adding penalty in 2B Cheby calc, r < rmin+penalty_dist 0.724801 0.753000 pair type: 2
chimesFF: 	...Penalty potential = 2.242446
chimesFF: Warning: Adding penalty in 2B Cheby calc, r < rmin+penalty_dist 2.25503 2.26500 pair type: 6
chimesFF: 	...Penalty potential = 0.09902
chimesFF: Warning: Adding penalty in 2B Cheby calc, r < rmin+penalty_dist 1.441596 1.443000 pair type: 4
chimesFF: 	...Penalty potential = 0.000277
chimesFF: Warning: Adding penalty in 2B Cheby calc, r < rmin+penalty_dist 0.940151 0.991000 pair type: 9
chimesFF: 	...Penalty potential = 13.147816
                49.1      491     368.480653909262    -40665.2415458048    -41002.4413925806     337.199846775813     66696.0937175678     2453.38561052904     1.80407843490206    -38278.8478016125     50321.6924415582     62333.5841825002     87433.0045286451         11.897069931         15.009448051         13.739188351 
Updating chimesFF neighbor lists...
	Rank 0 3-body list size: 6908
	Rank 0 4-body list size: 0
	...update complete
chimesFF: Warning: Adding penalty in 2B Cheby calc, r < rmin+penalty_dist 0.727380 0.753000 pair type: 2
chimesFF: 	...Penalty potential = 1.681601
chimesFF: Warning: Adding penalty in 2B Cheby calc, r < rmin+penalty_dist 2.25407 2.26500 pair type: 6
chimesFF: 	...Penalty potential = 0.13054
chimesFF: Warning: Adding penalty in 2B Cheby calc, r < rmin+penalty_dist 1.442508 1.443000 pair type: 4
chimesFF: 	...Penalty potential = 0.000012
chimesFF: Warning: Adding penalty in 2B Cheby calc, r < rmin+penalty_dist 0.949601 0.991000 pair type: 9
chimesFF: 	...Penalty potential = 7.095388
                49.2      492     379.312361811114    -40665.4165868689    -41012.5286236228     347.112036753972     64002.7891950711     2453.38561052904     1.80407843490206    -38375.3895817979     49766.2780108329     61307.7232984947     80934.3662758859         11.897069931         15.009448051         13.739188351 
Updating chimesFF neighbor lists...
	Rank 0 3-body list size: 5660
	Rank 0 4-body list size: 0
	...update complete
chimesFF: Warning: Adding penalty in 2B Cheby calc, r < rmin+penalty_dist 2.25333 2.26500 pair type: 6
chimesFF: 	...Penalty potential = 0.15910
chimesFF: Warning: Adding penalty in 2B Cheby calc, r < rmin+penalty_dist 0.732595 0.753000 pair type: 2
chimesFF: 	...Penalty potential = 0.849549
chimesFF: Warning: Adding penalty in 2B Cheby calc, r < rmin+penalty_dist 0.961745 0.991000 pair type: 9
chimesFF: 	...Penalty potential = 2.503798
                49.3      493      389.15809621752    -40665.4671924427    -41021.5891462656     356.121953822924     61010.1699535612     2453.38561052904     1.80407843490206    -38482.5164408467     48823.0392305949     60129.0745583107     74078.3960717781         11.897069931         15.009448051         13.739188351 
Updating chimesFF neighbor lists...
	Rank 0 3-body list size: 5659
	Rank 0 4-body list size: 0
	...update complete
chimesFF: Warning: Adding penalty in 2B Cheby calc, r < rmin+penalty_dist 2.25283 2.26500 pair type: 6
chimesFF: 	...Penalty potential = 0.18043
chimesFF: Warning: Adding penalty in 2B Cheby calc, r < rmin+penalty_dist 0.739804 0.753000 pair type: 2
chimesFF: 	...Penalty potential = 0.229786
chimesFF: Warning: Adding penalty in 2B Cheby calc, r < rmin+penalty_dist 0.975365 0.991000 pair type: 9
chimesFF: 	...Penalty potential = 0.382196
                49.4      494     396.139570927037    -40665.3677555038    -41027.8785174699     362.510761966153     58510.3754147627     2453.38561052904     1.80407843490206    -38571.8599340202     47802.8587414295     59124.4847952624     68603.7827075961         11.897069931         15.009448051         13.739188351 
Updating chimesFF neighbor lists...
	Rank 0 3-body list size: 5660
	Rank 0 4-body list size: 0
	...update complete
chimesFF: Warning: Adding penalty in 2B Cheby calc, r < rmin+penalty_dist 2.25259 2.26500 pair type: 6
chimesFF: 	...Penalty potential = 0.19106
chimesFF: Warning: Adding penalty in 2B Cheby calc, r < rmin+penalty_dist 0.748317 0.753000 pair type: 2
chimesFF: 	...Penalty potential = 0.010268
chimesFF: Warning: Adding penalty in 2B Cheby calc, r < rmin+penalty_dist 0.989576 0.991000 pair type: 9
chimesFF: 	...Penalty potential = 0.000289
                49.5      495     400.582953802656    -40665.1784681905    -41031.7554084185     366.576940227968     57071.1612478508     2453.38561052904     1.80407843490206    -38623.1658916761      47022.558590531     58516.3257181031     65674.5994349183         11.897069931         15.009448051         13.739188351 
Updating chimesFF neighbor lists...
	Rank 0 3-body list size: 5650
	Rank 0 4-body list size: 0
	...update complete
chimesFF: Warning: Adding penalty in 2B Cheby calc, r < rmin+penalty_dist 2.25263 2.26500 pair type: 6
chimesFF: 	...Penalty potential = 0.18908
                49.6      496     403.825715670738    -40665.1199753786    -41034.6643951566     369.544419777972     56495.7202500281     2453.38561052904     1.80407843490206    -38643.6967425696     46554.3676044607     58273.8983296935     64658.8948159301         11.897069931         15.009448051         13.739188351 
Updating chimesFF neighbor lists...
	Rank 0 3-body list size: 3068
	Rank 0 4-body list size: 0
	...update complete
chimesFF: Warning: Adding penalty in 2B Cheby calc, r < rmin+penalty_dist 2.252958 2.265000 pair type: 6
chimesFF: 	...Penalty potential = 0.174636
                49.7      497      406.55300252503    -40665.0845979702     -41037.124781636     372.040183665776     55929.3080060897     2453.38561052904     1.80407843490206    -38663.9276590357     45995.3812318501     58080.3536509969     63712.1891354222         11.897069931         15.009448051         13.739188351 
Updating chimesFF neighbor lists...
	Rank 0 3-body list size: 3068
	Rank 0 4-body list size: 0
	...update complete
chimesFF: Warning: Adding penalty in 2B Cheby calc, r < rmin+penalty_dist 2.253554 2.265000 pair type: 6
chimesFF: 	...Penalty potential = 0.149973
                49.8      498       408.7426674632    -40665.0487158217    -41039.0926808904     374.043965068701     55329.3739237651     2453.38561052904     1.80407843490206    -38685.3574859143     45306.2882368399     57906.5501100441     62775.2834244115         11.897069931         15.009448051         13.739188351 
Updating chimesFF neighbor lists...
	Rank 0 3-body list size: 3068
	Rank 0 4-body list size: 0
	...update complete
chimesFF: Warning: Adding penalty in 2B Cheby calc, r < rmin+penalty_dist 2.254406 2.265000 pair type: 6
chimesFF: 	...Penalty potential = 0.118898
                49.9      499     410.347397575105    -40665.0118488307    -41040.5243163625     375.512467531748     54710.2543619709     2453.38561052904     1.80407843490206    -38707.4727865665     44514.9698384354     57759.6001772899     61856.1930701875         11.897069931         15.009448051         13.739188351 
Updating chimesFF neighbor lists...
	Rank 0 3-body list size: 3068
	Rank 0 4-body list size: 0
	...update complete
chimesFF: Warning: Adding penalty in 2B Cheby calc, r < rmin+penalty_dist 2.255492 2.265000 pair type: 6
chimesFF: 	...Penalty potential = 0.085956
                  50      500     411.339380341184    -40664.9736461644    -41041.3938857411     376.420239576705     54088.6670504342     2453.38561052904     1.80407843490206     -38729.675047907     43658.7626784844      57644.787990217     60962.4504826011         11.897069931         15.009448051         13.739188351 
Loop time of 11.6542 on 36 procs for 500 steps with 308 atoms

Performance: 0.371 ns/day, 64.746 hours/ns, 42.903 timesteps/s
-0.0% CPU use with 36 MPI tasks x no OpenMP threads

MPI task timing breakdown:
Section |  min time  |  avg time  |  max time  |%varavg| %total
---------------------------------------------------------------
Pair    | 2.6447     | 5.4585     | 9.689      |  74.5 | 46.84
Neigh   | 1.3073     | 1.3423     | 1.3893     |   1.7 | 11.52
Comm    | 0.13646    | 4.3791     | 7.2199     |  83.1 | 37.58
Output  | 0.46959    | 0.46981    | 0.47528    |   0.1 |  4.03
Modify  | 0.0032074  | 0.0035321  | 0.0039506  |   0.3 |  0.03
Other   |            | 0.0009272  |            |       |  0.01

Nlocal:        8.55556 ave          12 max           5 min
Histogram: 1 4 6 0 5 9 0 7 2 2
Nghost:        738.028 ave         763 max         706 min
Histogram: 1 1 3 4 4 7 4 6 4 2
Neighs:        0.00000 ave           0 max           0 min
Histogram: 36 0 0 0 0 0 0 0 0 0
FullNghs:      1538.56 ave        2172 max         916 min
Histogram: 1 4 6 1 4 9 2 5 2 2

Total # of neighbors = 55388
Ave neighs/atom = 179.83117
Neighbor list builds = 500
Dangerous builds not checked
Total wall time: 0:00:11
